# vtk DataFile Version 2.0
track0
ASCII
DATASET POLYDATA
POINTS 11960 float
-0.0205 0.001 1e-05
-0.0202034 0.0010001 1e-05
-0.0199069 0.00100035 1e-05
-0.0196103 0.00100072 1e-05
-0.0193137 0.0010012 1e-05
-0.0190172 0.00100178 1e-05
-0.0187132 0.00100302 1e-05
-0.0184093 0.00100345 1e-05
-0.0181054 0.00100385 1e-05
-0.0178015 0.00100422 1e-05
-0.0174976 0.00100457 1e-05
-0.0172058 0.00100548 1e-05
-0.016914 0.00100571 1e-05
-0.0166222 0.00100595 1e-05
-0.0163305 0.00100621 1e-05
-0.0160387 0.00100648 1e-05
-0.0157586 0.00100727 1e-05
-0.0154784 0.0010076 1e-05
-0.0151983 0.00100797 1e-05
-0.0149182 0.00100838 1e-05
-0.0146381 0.00100884 1e-05
-0.0143692 0.00100972 1e-05
-0.0141002 0.00101027 1e-05
-0.0138313 0.00101086 1e-05
-0.0135624 0.0010115 1e-05
-0.0132934 0.00101218 1e-05
-0.0130353 0.00101314 1e-05
-0.0127771 0.00101389 1e-05
-0.0125189 0.00101467 1e-05
-0.0122607 0.00101548 1e-05
-0.0120025 0.00101632 1e-05
-0.0117547 0.00101734 1e-05
-0.0115068 0.00101823 1e-05
-0.0112589 0.00101913 1e-05
-0.0110111 0.00102007 1e-05
-0.0107632 0.00102102 1e-05
-0.0105252 0.00102208 1e-05
-0.0102873 0.00102305 1e-05
-0.0100493 0.00102404 1e-05
-0.00981133 0.00102505 1e-05
-0.00957337 0.00102608 1e-05
-0.00934491 0.00102715 1e-05
-0.00911645 0.00102817 1e-05
-0.00888799 0.00102921 1e-05
-0.00865954 0.00103026 1e-05
-0.00843108 0.00103132 1e-05
-0.00821175 0.00103238 1e-05
-0.00799242 0.00103343 1e-05
-0.00777309 0.00103448 1e-05
-0.00755376 0.00103555 1e-05
-0.00733443 0.00103662 1e-05
-0.00718831 0.00103735 1e-05
-0.00704219 0.00103807 1e-05
-0.00689607 0.0010388 1e-05
-0.00674995 0.00103953 1e-05
-0.00660478 0.00104025 1e-05
-0.00654014 0.00104058 1e-05
-0.00647551 0.0010409 1e-05
-0.00641087 0.00104123 1e-05
-0.00634623 0.00104156 1e-05
-0.0062816 0.00104188 1e-05
-0.00607944 0.00104291 1e-05
-0.00587729 0.00104393 1e-05
-0.00567514 0.00104497 1e-05
-0.00547298 0.001046 1e-05
-0.00527083 0.00104704 1e-05
-0.00507675 0.00104803 1e-05
-0.00488267 0.00104903 1e-05
-0.0046886 0.00105003 1e-05
-0.00449452 0.00105103 1e-05
-0.00430044 0.00105204 1e-05
-0.00411412 0.00105299 1e-05
-0.0039278 0.00105396 1e-05
-0.00374147 0.00105492 1e-05
-0.00355515 0.00105589 1e-05
-0.00336883 0.00105685 1e-05
-0.00318995 0.00105777 1e-05
-0.00301107 0.00105869 1e-05
-0.00283219 0.00105962 1e-05
-0.00265331 0.00106054 1e-05
-0.00247443 0.00106146 1e-05
-0.0023027 0.00106233 1e-05
-0.00213097 0.00106321 1e-05
-0.00195924 0.00106409 1e-05
-0.0017875 0.00106497 1e-05
-0.00161577 0.00106585 1e-05
-0.0014509 0.00106668 1e-05
-0.00128603 0.00106751 1e-05
-0.00112116 0.00106834 1e-05
-0.000956289 0.00106916 1e-05
-0.000791418 0.00106997 1e-05
-0.000633135 0.00107074 1e-05
-0.000474851 0.00107149 1e-05
-0.000316567 0.00107223 1e-05
-0.000158283 0.00107295 1e-05
0 0.00107365 1e-05
0.000105677 0.0010741 1e-05
0.000211355 0.00107454 1e-05
0.000317032 0.00107497 1e-05
0.00042271 0.00107539 1e-05
0.000528387 0.00107578 1e-05
0.000634886 0.00107616 1e-05
0.000741385 0.00107654 1e-05
0.000847885 0.00107691 1e-05
0.000954384 0.00107726 1e-05
0.00106088 0.00107759 1e-05
0.00116821 0.00107791 1e-05
0.00127554 0.00107823 1e-05
0.00138286 0.00107853 1e-05
0.00149019 0.00107883 1e-05
0.00159752 0.00107911 1e-05
0.00170568 0.00107936 1e-05
0.00181384 0.00107963 1e-05
0.001922 0.00107988 1e-05
0.00203016 0.00108012 1e-05
0.00213833 0.00108034 1e-05
0.00224733 0.00108055 1e-05
0.00235633 0.00108076 1e-05
0.00246533 0.00108097 1e-05
0.00257434 0.00108116 1e-05
0.00268334 0.00108135 1e-05
0.00279319 0.00108152 1e-05
0.00290304 0.0010817 1e-05
0.00301289 0.00108187 1e-05
0.00312274 0.00108203 1e-05
0.00323259 0.00108218 1e-05
0.00334329 0.00108233 1e-05
0.003454 0.00108247 1e-05
0.0035647 0.00108261 1e-05
0.0036754 0.00108275 1e-05
0.00378611 0.00108288 1e-05
0.00389767 0.001083 1e-05
0.00400924 0.00108312 1e-05
0.0041208 0.00108323 1e-05
0.00423237 0.00108335 1e-05
0.00434393 0.00108345 1e-05
0.00445636 0.00108355 1e-05
0.00456879 0.00108365 1e-05
0.00468123 0.00108375 1e-05
0.00479366 0.00108384 1e-05
0.00490609 0.00108393 1e-05
0.0050194 0.00108401 1e-05
0.0051327 0.00108409 1e-05
0.00524601 0.00108416 1e-05
0.00535932 0.00108423 1e-05
0.00547262 0.0010843 1e-05
0.00547642 0.0010843 1e-05
0.00548022 0.0010843 1e-05
0.00548402 0.0010843 1e-05
0.00548782 0.00108431 1e-05
0.00549161 0.00108431 1e-05
0.005602 0.00108437 1e-05
0.00571239 0.00108442 1e-05
0.00582278 0.00108448 1e-05
0.00593317 0.00108452 1e-05
0.00604356 0.00108457 1e-05
0.00615863 0.00108461 1e-05
0.00627371 0.00108465 1e-05
0.00638878 0.00108468 1e-05
0.00650386 0.00108471 1e-05
0.00661893 0.00108473 1e-05
0.0067349 0.00108475 1e-05
0.00685087 0.00108476 1e-05
0.00696684 0.00108477 1e-05
0.00708281 0.00108478 1e-05
0.00719878 0.00108478 1e-05
0.00731565 0.00108477 1e-05
0.00743252 0.00108476 1e-05
0.00754939 0.00108475 1e-05
0.00766626 0.00108473 1e-05
0.00778313 0.0010847 1e-05
0.00790091 0.00108467 1e-05
0.00801869 0.00108463 1e-05
0.00813647 0.00108459 1e-05
0.00825425 0.00108454 1e-05
0.00837203 0.00108449 1e-05
0.00849073 0.00108442 1e-05
0.00860942 0.00108436 1e-05
0.00872812 0.00108429 1e-05
0.00884682 0.00108421 1e-05
0.00896551 0.00108413 1e-05
0.00908513 0.00108403 1e-05
0.00920475 0.00108393 1e-05
0.00932437 0.00108383 1e-05
0.00944398 0.00108372 1e-05
0.0095636 0.00108361 1e-05
0.00968415 0.00108347 1e-05
0.0098047 0.00108334 1e-05
0.00992525 0.0010832 1e-05
0.0100458 0.00108306 1e-05
0.0101663 0.00108291 1e-05
0.0102878 0.00108273 1e-05
0.0104093 0.00108256 1e-05
0.0105308 0.00108238 1e-05
0.0106523 0.0010822 1e-05
0.0107738 0.00108201 1e-05
0.0108962 0.00108179 1e-05
0.0110186 0.00108158 1e-05
0.0111411 0.00108137 1e-05
0.0112635 0.00108114 1e-05
0.0113859 0.00108091 1e-05
0.0115093 0.00108065 1e-05
0.0116327 0.0010804 1e-05
0.0117561 0.00108014 1e-05
0.0118795 0.00107987 1e-05
0.0120028 0.00107959 1e-05
0.0121272 0.00107928 1e-05
0.0122515 0.00107898 1e-05
0.0123759 0.00107868 1e-05
0.0125002 0.00107836 1e-05
0.0126245 0.00107804 1e-05
0.0127498 0.00107767 1e-05
0.0128752 0.00107732 1e-05
0.0130005 0.00107697 1e-05
0.0131258 0.0010766 1e-05
0.0132511 0.00107623 1e-05
0.0133774 0.00107581 1e-05
0.0135036 0.00107541 1e-05
0.0136299 0.001075 1e-05
0.0137562 0.00107458 1e-05
0.0138825 0.00107415 1e-05
0.0140098 0.00107368 1e-05
0.014137 0.00107322 1e-05
0.0142643 0.00107275 1e-05
0.0143915 0.00107227 1e-05
0.0145188 0.00107178 1e-05
0.0146471 0.00107126 1e-05
0.0147753 0.00107074 1e-05
0.0149036 0.00107021 1e-05
0.0150318 0.00106967 1e-05
0.0151601 0.00106912 1e-05
0.0152893 0.00106853 1e-05
0.0154186 0.00106795 1e-05
0.0155478 0.00106736 1e-05
0.0156771 0.00106676 1e-05
0.0158063 0.00106614 1e-05
0.0159366 0.00106549 1e-05
0.0160668 0.00106484 1e-05
0.0161971 0.00106418 1e-05
0.0163274 0.00106351 1e-05
0.0164576 0.00106283 1e-05
0.0165889 0.00106211 1e-05
0.0167201 0.00106139 1e-05
0.0168514 0.00106067 1e-05
0.0169827 0.00105993 1e-05
0.0171139 0.00105917 1e-05
0.0172462 0.00105839 1e-05
0.0173785 0.0010576 1e-05
0.0175108 0.0010568 1e-05
0.0176431 0.00105598 1e-05
0.0177754 0.00105516 1e-05
0.0179087 0.00105431 1e-05
0.018042 0.00105344 1e-05
0.0181753 0.00105257 1e-05
0.0183087 0.00105168 1e-05
0.018442 0.00105077 1e-05
0.0185763 0.00104985 1e-05
0.0187107 0.00104891 1e-05
0.018845 0.00104796 1e-05
0.0189794 0.00104699 1e-05
0.0191137 0.00104601 1e-05
0.0192491 0.00104501 1e-05
0.0193845 0.00104399 1e-05
0.0195199 0.00104296 1e-05
0.0196553 0.00104191 1e-05
0.0197907 0.00104085 1e-05
0.0199272 0.00103977 1e-05
0.0200636 0.00103868 1e-05
0.0202001 0.00103756 1e-05
0.0203365 0.00103642 1e-05
0.020473 0.00103528 1e-05
0.0206105 0.00103413 1e-05
0.020748 0.00103295 1e-05
0.0208855 0.00103174 1e-05
0.021023 0.00103052 1e-05
0.0211606 0.0010293 1e-05
0.0212991 0.00102807 1e-05
0.0214377 0.00102681 1e-05
0.0215763 0.00102551 1e-05
0.0217149 0.0010242 1e-05
0.0218535 0.00102289 1e-05
0.0219931 0.00102158 1e-05
0.0221328 0.00102023 1e-05
0.0222724 0.00101885 1e-05
0.0224121 0.00101745 1e-05
0.0225517 0.00101605 1e-05
0.0226925 0.00101465 1e-05
0.0228332 0.00101322 1e-05
0.022974 0.00101174 1e-05
0.0231147 0.00101025 1e-05
0.0232555 0.00100877 1e-05
0.0233973 0.00100728 1e-05
0.0235391 0.00100576 1e-05
0.023681 0.00100419 1e-05
0.0238228 0.00100261 1e-05
0.0239647 0.00100103 1e-05
0.0241076 0.000999454 1e-05
0.0242505 0.000997834 1e-05
0.0243935 0.000996175 1e-05
0.0245364 0.000994499 1e-05
0.0246794 0.000992831 1e-05
0.0248234 0.000991157 1e-05
0.0249675 0.000989443 1e-05
0.0251115 0.000987687 1e-05
0.0252556 0.000985915 1e-05
0.0253996 0.000984151 1e-05
0.0255448 0.000982381 1e-05
0.02569 0.000980569 1e-05
0.0258351 0.000978714 1e-05
0.0259803 0.000976844 1e-05
0.0261255 0.000974982 1e-05
0.0262718 0.000973112 1e-05
0.0264181 0.000971199 1e-05
0.0265644 0.000969248 1e-05
0.0267107 0.00096728 1e-05
0.026857 0.000965316 1e-05
0.0270044 0.000963344 1e-05
0.0271519 0.000961328 1e-05
0.0272993 0.000959277 1e-05
0.0274467 0.00095721 1e-05
0.0275942 0.000955141 1e-05
0.0277428 0.000953063 1e-05
0.0278914 0.000950941 1e-05
0.0280399 0.000948787 1e-05
0.0281885 0.000946616 1e-05
0.0283371 0.00094444 1e-05
0.0284869 0.000942252 1e-05
0.0286366 0.00094002 1e-05
0.0287863 0.00093776 1e-05
0.0289361 0.000935483 1e-05
0.0290858 0.000933195 1e-05
0.0292367 0.000930894 1e-05
0.0293876 0.000928548 1e-05
0.0295385 0.000926178 1e-05
0.0296894 0.00092379 1e-05
0.0298403 0.000921386 1e-05
0.0299924 0.000918968 1e-05
0.0301445 0.000916504 1e-05
0.0302966 0.00091402 1e-05
0.0304486 0.000911517 1e-05
0.0306007 0.000908996 1e-05
0.030754 0.000906455 1e-05
0.0309072 0.000903873 1e-05
0.0310605 0.00090127 1e-05
0.0312138 0.000898648 1e-05
0.031367 0.000896006 1e-05
0.0315215 0.000893339 1e-05
0.0316759 0.000890634 1e-05
0.0318304 0.000887908 1e-05
0.0319848 0.000885162 1e-05
0.0321393 0.000882394 1e-05
0.0322949 0.000879595 1e-05
0.0324506 0.000876763 1e-05
0.0326062 0.000873908 1e-05
0.0327619 0.000871032 1e-05
0.0329175 0.000868134 1e-05
0.0330744 0.000865197 1e-05
0.0332313 0.000862231 1e-05
[...]
POINT_DATA 11960
 FIELD attributes 2
p 1 11960 float
-5.56761 -5.55997 -5.55196 -5.54392 -5.53584 -5.53636 -5.50932 -5.52545 -5.54157 -5.55767 -5.61887 -5.62505 -5.66394 -5.70283 -5.74172 -5.80339 -5.80271 -5.82981 -5.85693 -5.88406 -5.93069 -5.93456 -5.95802 -5.98149 -6.00498 -6.04323 -6.05253 -6.07438 -6.09624 -6.11811 -6.14945 -6.16087 -6.18024 -6.19961 -6.21898 -6.24414 -6.25654 -6.2738 -6.29107 -6.30834 -6.32895 -6.34209 -6.35798 -6.37389 -6.38979 -6.40734 -6.42098 -6.43596 -6.45094 -6.46593 -6.48144 -6.49095 -6.50088 -6.51082 -6.52076 -6.53063 -6.53502 -6.53942 -6.54381 -6.54821 -6.55246 -6.56641 -6.58026 -6.5941 -6.60795 -6.62131 -6.63524 -6.6488 -6.66236 -6.67592 -6.68879 -6.70276 -6.71622 -6.72967 -6.74312 -6.75577 -6.76997 -6.78357 -6.79717 -6.81078 -6.82355 -6.83847 -6.85285 -6.86723 -6.88162 -6.89522 -6.91234 -6.92934 -6.94635 -6.96335 -6.97967 -6.99872 -7.01724 -7.03577 -7.05429 -7.07116 -7.08572 -7.09795 -7.11018 -7.12241 -7.13226 -7.14183 -7.14817 -7.15452 -7.16086 -7.16478 -7.17271 -7.17737 -7.18203 -7.1867 -7.18872 -7.19632 -7.20044 -7.20456 -7.20868 -7.20978 -7.21587 -7.21865 -7.22143 -7.22421 -7.22418 -7.22866 -7.23048 -7.2323 -7.23412 -7.23375 -7.23709 -7.23852 -7.23996 -7.2414 -7.24134 -7.2438 -7.24504 -7.24628 -7.24752 -7.2479 -7.24967 -7.25077 -7.25188 -7.25298 -7.25373 -7.25505 -7.2561 -7.25715 -7.2582 -7.25925 -7.25929 -7.25932 -7.25936 -7.2594 -7.25943 -7.26047 -7.26151 -7.26255 -7.26359 -7.2647 -7.26585 -7.26701 -7.26817 -7.26933 -7.27054 -7.27186 -7.27316 -7.27446 -7.27576 -7.27708 -7.27857 -7.28004 -7.28151 -7.28298 -7.2845 -7.28611 -7.28776 -7.2894 -7.29105 -7.29288 -7.29449 -7.29632 -7.29814 -7.29997 -7.30221 -7.30372 -7.30572 -7.30773 -7.30974 -7.31251 -7.3138 -7.31598 -7.31817 -7.32035 -7.32376 -7.32474 -7.32709 -7.32944 -7.33179 -7.33593 -7.33651 -7.33902 -7.34153 -7.34404 -7.34895 -7.3491 -7.35175 -7.35441 -7.35707 -7.36276 -7.36246 -7.36526 -7.36805 -7.37084 -7.37731 -7.37657 -7.37949 -7.38241 -7.38533 -7.39252 -7.3914 -7.39443 -7.39746 -7.40049 -7.40832 -7.40689 -7.41003 -7.41316 -7.4163 -7.42466 -7.42318 -7.42623 -7.42945 -7.43313 -7.44146 -7.44027 -7.44299 -7.44629 -7.45046 -7.45864 -7.45781 -7.46024 -7.4636 -7.46821 -7.47614 -7.47571 -7.47789 -7.48131 -7.48628 -7.49389 -7.49391 -7.49592 -7.49939 -7.50463 -7.51187 -7.51236 -7.51426 -7.51778 -7.52319 -7.53002 -7.53098 -7.53286 -7.5364 -7.54188 -7.54827 -7.54968 -7.5516 -7.55516 -7.56061 -7.56655 -7.56838 -7.57041 -7.57397 -7.5793 -7.5848 -7.587 -7.58921 -7.5928 -7.59788 -7.60296 -7.60549 -7.60803 -7.61161 -7.61629 -7.62098 -7.62379 -7.62661 -7.63016 -7.63448 -7.6388 -7.64184 -7.64488 -7.64839 -7.65238 -7.65637 -7.65958 -7.66279 -7.66624 -7.66993 -7.67362 -7.67694 -7.68027 -7.68365 -7.68706 -7.69048 -7.69386 -7.69725 -7.70054 -7.70372 -7.7069 -7.7103 -7.7137 -7.7169 -7.71988 -7.72285 -7.72623 -7.72957 -7.73266 -7.73551 -7.7383 -7.74161 -7.74483 -7.7478 -7.75055 -7.75317 -7.75638 -7.75943 -7.76227 -7.76493 -7.7674 -7.77047 -7.77332 -7.77602 -7.7786 -7.78091 -7.78383 -7.78644 -7.78899 -7.79149 -7.79364 -7.79637 -7.79875 -7.80112 -7.8035 -7.80553 -7.808 -7.81018 -7.81237 -7.81456 -7.81649 -7.81868 -7.82067 -7.82266 -7.82465 -7.82648 -7.82839 -7.83017 -7.83195 -7.83373 -7.83542 -7.83705 -7.8386 -7.84016 -7.84172 -7.84326 -7.84385 -7.84442 -7.845 -7.84557 -7.84613 -7.84689 -7.84765 -7.84841 -7.84917 -7.84993 -7.85102 -7.85209 -7.85317 -7.85425 -7.8553 -7.85614 -7.85692 -7.85769 -7.85847 -7.85919 -7.85977 -7.86022 -7.86066 -7.86111 -7.86145 -7.86176 -7.86184 -7.86192 -7.862 -7.86191 -7.86188 -7.86162 -7.8613 -7.86092 -7.86041 -7.85997 -7.85936 -7.8586 -7.85771 -7.85671 -7.85582 -7.85484 -7.85359 -7.85211 -7.85058 -7.84918 -7.84778 -7.84598 -7.84387 -7.84176 -7.83979 -7.83783 -7.83547 -7.83272 -7.82998 -7.82739 -7.8248 -7.82182 -7.81837 -7.81493 -7.81166 -7.80839 -7.8047 -7.80051 -7.7963 -7.79228 -7.78813 -7.78363 -7.7788 -7.77376 -7.76891 -7.76377 -7.7584 -7.75289 -7.74696 -7.74122 -7.73497 -7.72867 -7.72237 -7.71553 -7.70869 -7.70138 -7.69407 -7.68676 -7.67914 -7.67103 -7.66264 -7.65425 -7.64587 -7.63743 -7.63515 -7.63281 -7.63047 -7.62812 -7.62583 -7.61873 -7.61164 -7.60456 -7.59748 -7.59032 -7.57984 -7.56925 -7.55868 -7.54811 -7.53733 -7.52576 -7.51393 -7.50211 -7.49026 -7.47811 -7.46531 -7.45228 -7.43916 -7.42587 -7.41239 -7.39825 -7.38406 -7.3696 -7.35479 -7.33995 -7.32444 -7.30893 -7.29307 -7.27684 -7.26062 -7.24369 -7.22678 -7.2095 -7.19187 -7.17425 -7.15589 -7.13744 -7.1187 -7.09979 -7.08075 -7.06095 -7.04088 -7.0207 -7.00054 -6.9801 -6.95879 -6.93718 -6.91559 -6.89401 -6.87233 -6.85857 -6.84471 -6.83085 -6.817 -6.80372 -6.79448 -6.78524 -6.77601 -6.76677 -6.75751 -6.73317 -6.70883 -6.6845 -6.66018 -6.63579 -6.61015 -6.58451 -6.55889 -6.53326 -6.50759 -6.48067 -6.45379 -6.42694 -6.40011 -6.3733 -6.34517 -6.31706 -6.2891 -6.26124 -6.23339 -6.20418 -6.17498 -6.14599 -6.11723 -6.08847 -6.0583 -6.0282 -5.99838 -5.96875 -5.93924 -5.90827 -5.87763 -5.84713 -5.81663 -5.78652 -5.75507 -5.72407 -5.69308 -5.66209 -5.63123 -5.62096 -5.61084 -5.60071 -5.59059 -5.58061 -5.55939 -5.53816 -5.51694 -5.49573 -5.47473 -5.44301 -5.41157 -5.38015 -5.34872 -5.318 -5.28598 -5.25454 -5.22324 -5.1924 -5.16204 -5.13025 -5.09855 -5.06767 -5.03785 -5.00802 -4.97673 -4.94543 -4.91526 -4.88621 -4.85716 -4.8266 -4.79631 -4.76716 -4.73868 -4.71064 -4.68106 -4.65267 -4.62463 -4.59659 -4.5696 -4.54181 -4.5151 -4.48839 -4.46168 -4.43511 -4.4316 -4.42822 -4.42484 -4.42147 -4.41809 -4.39603 -4.37398 -4.35192 -4.32986 -4.30855 -4.28389 -4.2601 -4.23631 -4.21256 -4.19039 -4.16692 -4.1445 -4.12255 -4.10153 -4.08122 -4.05964 -4.03808 -4.01824 -3.99989 -3.98153 -3.96195 -3.94237 -3.92435 -3.90801 -3.89166 -3.87416 -3.85684 -3.84087 -3.82609 -3.81178 -3.79639 -3.78191 -3.76796 -3.75419 -3.74192 -3.72878 -3.71687 -3.70493 -3.69298 -3.68194 -3.67146 -3.66151 -3.65155 -3.64157 -3.6316 -3.63139 -3.63119 -3.63099 -3.63079 -3.63059 -3.62254 -3.61447 -3.60639 -3.59829 -3.59054 -3.58341 -3.57697 -3.57051 -3.56405 -3.55815 -3.55212 -3.54738 -3.54263 -3.53794 -3.53377 -3.52924 -3.52564 -3.52244 -3.51944 -3.51667 -3.51361 -3.51096 -3.50914 -3.50754 -3.50598 -3.50423 -3.50247 -3.50183 -3.50131 -3.50077 -3.50012 -3.49947 -3.49945 -3.49972 -3.49998 -3.50021 -3.50044 -3.50083 -3.50166 -3.50247 -3.50334 -3.50419 -3.50478 -3.50589 -3.507 -3.50823 -3.50941 -3.51005 -3.51111 -3.51223 -3.51355 -3.51464 -3.51518 -3.51591 -3.51675 -3.51786 -3.51848 -3.51863 -3.51883 -3.51908 -3.51968 -3.51943 -3.51889 -3.51833 -3.51768 -3.51744 -3.51594 -3.51438 -3.51282 -3.51097 -3.5093 -3.5064 -3.5035 -3.50059 -3.49735 -3.49376 -3.48919 -3.48462 -3.48005 -3.4752 -3.46925 -3.46268 -3.45611 -3.44953 -3.44288 -3.44098 -3.43894 -3.43691 -3.43487 -3.43293 -3.42615 -3.41938 -3.4126 -3.40581 -3.39857 -3.38751 -3.37611 -3.36471 -3.35331 -3.34071 -3.32727 -3.3129 -3.29853 -3.28416 -3.26767 -3.25173 -3.23409 -3.21642 -3.19812 -3.17783 -3.15847 -3.1381 -3.11682 -3.09371 -3.06962 -3.04651 -3.02339 -2.9979 -2.96972 -2.94151 -2.91434 -2.88716 -2.85726 -2.82468 -2.79205 -2.76054 -2.72861 -2.69376 -2.65722 -2.61991 -2.58377 -2.54519 -2.50554 -2.46587 -2.42385 -2.38165 -2.33699 -2.2923 -2.24759 -2.20277 -2.2027 -2.20262 -2.20254 -2.20247 -2.20239 -2.15341 -2.10441 -2.05541 -2.0064 -1.95461 -1.90296 -1.84858 -1.79418 -1.73796 -1.6795 -1.62241 -1.56531 -1.50481 -1.4409 -1.37683 -1.3142 -1.25099 -1.1842 -1.11599 -1.04624 -0.977766 -0.905286 -0.832778 -0.760244 -0.693003 -0.691917 -0.69083 -0.689744 -0.688658 -0.687508 -0.610722 -0.533867 -0.457008 -0.380102 -0.298674 -0.218855 -0.138331 -0.0556287 0.0311347 0.11822 0.203653 0.289793 0.379543 0.470008 0.562638 0.615396 0.670179 0.725406 0.780638 0.831445 0.871711 0.911976 0.95224 0.992851 1.03497 1.13166 1.23053 1.3294 1.43127 1.53467 1.63653 1.73849 1.84426 1.95078 2.05913 2.10913 2.16026 2.21202 2.26378 2.31252 2.37113 2.42974 2.48834 2.54759 2.60813 2.72007 2.83249 2.9463 3.06273 3.17988 3.29049 3.40252 3.51581 3.6291 3.73003 3.73827 3.74652 3.75476 3.76309 3.77155 3.89233 4.01338 4.1344 4.2569 4.38154 4.5048 4.62815 4.75381 4.87952 5.00718 5.03924 5.07151 5.10409 5.13667 5.16838 5.26384 5.35928 5.45469 5.5512 5.64907 5.77819 5.90726 6.03801 6.16935 6.30237 6.3365 6.37073 6.40524 6.43974 6.47334 6.57154 6.66973 6.76789 6.86661 6.96629 7.09954 7.23279 7.36643 7.50002 7.63516 7.63963 7.6441 7.64856 7.65303 7.65748 7.78738 7.91724 8.04703 8.1762 8.30673 8.39195 8.4771 8.56137 8.64561 8.72488 8.77503 8.82518 8.87531 8.92469 8.9743 9.10729 9.2402 9.37083 9.50071 9.6321 9.64254 9.65299 9.66315 9.67329 9.68336 9.80263 9.92185 10.0406 10.1558 10.2721 10.3268 10.3815 10.4342 10.4866 10.5377 10.6089 10.68 10.7506 10.8188 10.8872 10.9741 11.061 11.1445 11.2272 11.3089 11.342 11.3752 11.408 11.4398 11.4715 11.5842 11.6969 11.8054 11.9131 12.0225 12.023 12.0235 12.024 12.0245 12.0249 12.1306 12.2363 12.3415 12.4433 12.5436 12.5784 12.6132 12.6468 12.6802 12.7153 12.7804 12.8456 12.9107 12.9739 13.0363 13.1138 13.1913 13.2665 13.3417 13.4289 13.4434 13.458 13.4726 13.4868 13.5009 13.5907 13.6801 13.769 13.8557 13.9406 13.9904 14.0398 14.088 14.1362 14.1917 14.2237 14.2558 14.2878 14.3192 14.3501 14.428 14.5058 14.5823 14.6567 14.7299 14.7893 14.8475 14.9045 14.9615 15.032 15.0408 15.0495 15.0582 15.0669 15.0752 15.1395 15.2033 15.2671 15.3293 15.3896 15.4474 15.5051 15.5606 15.6145 15.6678 15.7188 15.7674 15.8155 15.8635 15.9111 15.9152 15.9191 15.9229 15.9268 15.9307 15.97 16.0091 16.0482 16.0872 16.124 16.1616 16.1988 16.2356 16.2708 16.3052 16.3371 16.3689 16.3993 16.4285 16.4575 16.4842 16.5104 16.5353 16.5599 16.5842 16.6064 16.6273 16.6481 16.6688 16.6893 16.7054 16.721 16.7366 16.7521 16.7729 16.7737 16.7746 16.7754 16.7762 16.7771 16.7924 16.8078 16.8231 16.8383 16.8534 16.8671 16.8809 16.8946 16.9083 16.9221 16.9352 16.9492 16.9632 16.9774 16.9934 17.0093 17.0213 17.0322 17.0423 17.0511 17.0594 17.0741 17.0922 17.1163 17.1521 17.1872 17.2106 17.2181 17.1989 17.1738 17.1429 17.1118 17.0764 17.0358 16.9951 16.9504 16.9056 16.8608 16.8197 16.7785 16.7343 16.6896 16.644 16.5985 16.5533 16.505 16.4555 16.4054 16.3552 16.3045 16.2507 16.1955 16.1404 16.0852 16.0297 15.9707 15.9109 15.8511 15.7913 15.7313 15.6672 15.6026 15.538 15.4734 15.4087 15.3598 15.3107 15.2616 15.2126 15.1504 15.1323 15.1142 15.0961 15.078 15.0598 14.9845 14.909 14.8336 14.7581 14.6822 14.6009 14.5191 14.4373 14.3555 14.2728 14.1849 14.096 14.0071 13.9182 13.828 13.7327 13.6359 13.5391 13.4423 13.3435 13.2401 13.1343 13.0286 12.9228 12.8144 12.7017 12.5858 12.4699 12.354 12.2347 12.1114 11.9841 11.8567 11.729 11.5976 11.4619 11.3219 11.1813 11.0398 10.8943 10.7442 10.5899 10.4344 10.2777 10.1171 9.95136 9.78026 9.60674 9.43065 9.24964 9.06281 8.87297 8.6812 8.48747 8.29099 8.08816 7.87585 7.65537 7.42661 7.18917 6.94398 6.70354 6.46846 6.23873 6.01347 5.78076 5.51773 5.21085 4.85851 4.4789 4.08627 3.74145 3.49089 3.33021 3.21474 3.09511 2.87609 2.27371 1.16069 0