# vtk DataFile Version 2.0
track0
ASCII
DATASET POLYDATA
POINTS 11960 float
-0.0205 0.001 1e-05
-0.0202034 0.0010001 1e-05
-0.0199069 0.00100035 1e-05
-0.0196103 0.00100072 1e-05
-0.0193137 0.0010012 1e-05
-0.0190172 0.00100178 1e-05
-0.0187132 0.00100302 1e-05
-0.0184093 0.00100345 1e-05
-0.0181054 0.00100385 1e-05
-0.0178015 0.00100422 1e-05
-0.0174976 0.00100457 1e-05
-0.0172058 0.00100548 1e-05
-0.016914 0.00100571 1e-05
-0.0166222 0.00100595 1e-05
-0.0163305 0.00100621 1e-05
-0.0160387 0.00100648 1e-05
-0.0157586 0.00100727 1e-05
-0.0154784 0.0010076 1e-05
-0.0151983 0.00100797 1e-05
-0.0149182 0.00100838 1e-05
-0.0146381 0.00100884 1e-05
-0.0143692 0.00100972 1e-05
-0.0141002 0.00101027 1e-05
-0.0138313 0.00101086 1e-05
-0.0135624 0.0010115 1e-05
-0.0132934 0.00101218 1e-05
-0.0130353 0.00101314 1e-05
-0.0127771 0.00101389 1e-05
-0.0125189 0.00101467 1e-05
-0.0122607 0.00101548 1e-05
-0.0120025 0.00101632 1e-05
-0.0117547 0.00101734 1e-05
-0.0115068 0.00101823 1e-05
-0.0112589 0.00101913 1e-05
-0.0110111 0.00102007 1e-05
-0.0107632 0.00102102 1e-05
-0.0105252 0.00102208 1e-05
-0.0102873 0.00102305 1e-05
-0.0100493 0.00102404 1e-05
-0.00981133 0.00102505 1e-05
-0.00957337 0.00102608 1e-05
-0.00934491 0.00102715 1e-05
-0.00911645 0.00102817 1e-05
-0.00888799 0.00102921 1e-05
-0.00865954 0.00103026 1e-05
-0.00843108 0.00103132 1e-05
-0.00821175 0.00103238 1e-05
-0.00799242 0.00103343 1e-05
-0.00777309 0.00103448 1e-05
-0.00755376 0.00103555 1e-05
-0.00733443 0.00103662 1e-05
-0.00718831 0.00103735 1e-05
-0.00704219 0.00103807 1e-05
-0.00689607 0.0010388 1e-05
-0.00674995 0.00103953 1e-05
-0.00660478 0.00104025 1e-05
-0.00654014 0.00104058 1e-05
-0.00647551 0.0010409 1e-05
-0.00641087 0.00104123 1e-05
-0.00634623 0.00104156 1e-05
-0.0062816 0.00104188 1e-05
-0.00607944 0.00104291 1e-05
-0.00587729 0.00104393 1e-05
-0.00567514 0.00104497 1e-05
-0.00547298 0.001046 1e-05
-0.00527083 0.00104704 1e-05
-0.00507675 0.00104803 1e-05
-0.00488267 0.00104903 1e-05
-0.0046886 0.00105003 1e-05
-0.00449452 0.00105103 1e-05
-0.00430044 0.00105204 1e-05
-0.00411412 0.00105299 1e-05
-0.0039278 0.00105396 1e-05
-0.00374147 0.00105492 1e-05
-0.00355515 0.00105589 1e-05
-0.00336883 0.00105685 1e-05
-0.00318995 0.00105777 1e-05
-0.00301107 0.00105869 1e-05
-0.00283219 0.00105962 1e-05
-0.00265331 0.00106054 1e-05
-0.00247443 0.00106146 1e-05
-0.0023027 0.00106233 1e-05
-0.00213097 0.00106321 1e-05
-0.00195924 0.00106409 1e-05
-0.0017875 0.00106497 1e-05
-0.00161577 0.00106585 1e-05
-0.0014509 0.00106668 1e-05
-0.00128603 0.00106751 1e-05
-0.00112116 0.00106834 1e-05
-0.000956289 0.00106916 1e-05
-0.000791418 0.00106997 1e-05
-0.000633135 0.00107074 1e-05
-0.000474851 0.00107149 1e-05
-0.000316567 0.00107223 1e-05
-0.000158283 0.00107295 1e-05
0 0.00107365 1e-05
0.000105677 0.0010741 1e-05
0.000211355 0.00107454 1e-05
0.000317032 0.00107497 1e-05
0.00042271 0.00107539 1e-05
0.000528387 0.00107578 1e-05
0.000634886 0.00107616 1e-05
0.000741385 0.00107654 1e-05
0.000847885 0.00107691 1e-05
0.000954384 0.00107726 1e-05
0.00106088 0.00107759 1e-05
0.00116821 0.00107791 1e-05
0.00127554 0.00107823 1e-05
0.00138286 0.00107853 1e-05
0.00149019 0.00107883 1e-05
0.00159752 0.00107911 1e-05
0.00170568 0.00107936 1e-05
0.00181384 0.00107963 1e-05
0.001922 0.00107988 1e-05
0.00203016 0.00108012 1e-05
0.00213833 0.00108034 1e-05
0.00224733 0.00108055 1e-05
0.00235633 0.00108076 1e-05
0.00246533 0.00108097 1e-05
0.00257434 0.00108116 1e-05
0.00268334 0.00108135 1e-05
0.00279319 0.00108152 1e-05
0.00290304 0.0010817 1e-05
0.00301289 0.00108187 1e-05
0.00312274 0.00108203 1e-05
0.00323259 0.00108218 1e-05
0.00334329 0.00108233 1e-05
0.003454 0.00108247 1e-05
0.0035647 0.00108261 1e-05
0.0036754 0.00108275 1e-05
0.00378611 0.00108288 1e-05
0.00389767 0.001083 1e-05
0.00400924 0.00108312 1e-05
0.0041208 0.00108323 1e-05
0.00423237 0.00108335 1e-05
0.00434393 0.00108345 1e-05
0.00445636 0.00108355 1e-05
0.00456879 0.00108365 1e-05
0.00468123 0.00108375 1e-05
0.00479366 0.00108384 1e-05
0.00490609 0.00108393 1e-05
0.0050194 0.00108401 1e-05
0.0051327 0.00108409 1e-05
0.00524601 0.00108416 1e-05
0.00535932 0.00108423 1e-05
0.00547262 0.0010843 1e-05
0.00547642 0.0010843 1e-05
0.00548022 0.0010843 1e-05
0.00548402 0.0010843 1e-05
0.00548782 0.00108431 1e-05
0.00549161 0.00108431 1e-05
0.005602 0.00108437 1e-05
0.00571239 0.00108442 1e-05
0.00582278 0.00108448 1e-05
0.00593317 0.00108452 1e-05
0.00604356 0.00108457 1e-05
0.00615863 0.00108461 1e-05
0.00627371 0.00108465 1e-05
0.00638878 0.00108468 1e-05
0.00650386 0.00108471 1e-05
0.00661893 0.00108473 1e-05
0.0067349 0.00108475 1e-05
0.00685087 0.00108476 1e-05
0.00696684 0.00108477 1e-05
0.00708281 0.00108478 1e-05
0.00719878 0.00108478 1e-05
0.00731565 0.00108477 1e-05
0.00743252 0.00108476 1e-05
0.00754939 0.00108475 1e-05
0.00766626 0.00108473 1e-05
0.00778313 0.0010847 1e-05
0.00790091 0.00108467 1e-05
0.00801869 0.00108463 1e-05
0.00813647 0.00108459 1e-05
0.00825425 0.00108454 1e-05
0.00837203 0.00108449 1e-05
0.00849073 0.00108442 1e-05
0.00860942 0.00108436 1e-05
0.00872812 0.00108429 1e-05
0.00884682 0.00108421 1e-05
0.00896551 0.00108413 1e-05
0.00908513 0.00108403 1e-05
0.00920475 0.00108393 1e-05
0.00932437 0.00108383 1e-05
0.00944398 0.00108372 1e-05
0.0095636 0.00108361 1e-05
0.00968415 0.00108347 1e-05
0.0098047 0.00108334 1e-05
0.00992525 0.0010832 1e-05
0.0100458 0.00108306 1e-05
0.0101663 0.00108291 1e-05
0.0102878 0.00108273 1e-05
0.0104093 0.00108256 1e-05
0.0105308 0.00108238 1e-05
0.0106523 0.0010822 1e-05
0.0107738 0.00108201 1e-05
0.0108962 0.00108179 1e-05
0.0110186 0.00108158 1e-05
0.0111411 0.00108137 1e-05
0.0112635 0.00108114 1e-05
0.0113859 0.00108091 1e-05
0.0115093 0.00108065 1e-05
0.0116327 0.0010804 1e-05
0.0117561 0.00108014 1e-05
0.0118795 0.00107987 1e-05
0.0120028 0.00107959 1e-05
0.0121272 0.00107928 1e-05
0.0122515 0.00107898 1e-05
0.0123759 0.00107868 1e-05
0.0125002 0.00107836 1e-05
0.0126245 0.00107804 1e-05
0.0127498 0.00107767 1e-05
0.0128752 0.00107732 1e-05
0.0130005 0.00107697 1e-05
0.0131258 0.0010766 1e-05
0.0132511 0.00107623 1e-05
0.0133774 0.00107581 1e-05
0.0135036 0.00107541 1e-05
0.0136299 0.001075 1e-05
0.0137562 0.00107458 1e-05
0.0138825 0.00107415 1e-05
0.0140098 0.00107368 1e-05
0.014137 0.00107322 1e-05
0.0142643 0.00107275 1e-05
0.0143915 0.00107227 1e-05
0.0145188 0.00107178 1e-05
0.0146471 0.00107126 1e-05
0.0147753 0.00107074 1e-05
0.0149036 0.00107021 1e-05
0.0150318 0.00106967 1e-05
0.0151601 0.00106912 1e-05
0.0152893 0.00106853 1e-05
0.0154186 0.00106795 1e-05
0.0155478 0.00106736 1e-05
0.0156771 0.00106676 1e-05
0.0158063 0.00106614 1e-05
0.0159366 0.00106549 1e-05
0.0160668 0.00106484 1e-05
0.0161971 0.00106418 1e-05
0.0163274 0.00106351 1e-05
0.0164576 0.00106283 1e-05
0.0165889 0.00106211 1e-05
0.0167201 0.00106139 1e-05
0.0168514 0.00106067 1e-05
0.0169827 0.00105993 1e-05
0.0171139 0.00105917 1e-05
0.0172462 0.00105839 1e-05
0.0173785 0.0010576 1e-05
0.0175108 0.0010568 1e-05
0.0176431 0.00105598 1e-05
0.0177754 0.00105516 1e-05
0.0179087 0.00105431 1e-05
0.018042 0.00105344 1e-05
0.0181753 0.00105257 1e-05
0.0183087 0.00105168 1e-05
0.018442 0.00105077 1e-05
0.0185763 0.00104985 1e-05
0.0187107 0.00104891 1e-05
0.018845 0.00104796 1e-05
0.0189794 0.00104699 1e-05
0.0191137 0.00104601 1e-05
0.0192491 0.00104501 1e-05
0.0193845 0.00104399 1e-05
0.0195199 0.00104296 1e-05
0.0196553 0.00104191 1e-05
0.0197907 0.00104085 1e-05
0.0199272 0.00103977 1e-05
0.0200636 0.00103868 1e-05
0.0202001 0.00103756 1e-05
0.0203365 0.00103642 1e-05
0.020473 0.00103528 1e-05
0.0206105 0.00103413 1e-05
0.020748 0.00103295 1e-05
0.0208855 0.00103174 1e-05
0.021023 0.00103052 1e-05
0.0211606 0.0010293 1e-05
0.0212991 0.00102807 1e-05
0.0214377 0.00102681 1e-05
0.0215763 0.00102551 1e-05
0.0217149 0.0010242 1e-05
0.0218535 0.00102289 1e-05
0.0219931 0.00102158 1e-05
0.0221328 0.00102023 1e-05
0.0222724 0.00101885 1e-05
0.0224121 0.00101745 1e-05
0.0225517 0.00101605 1e-05
0.0226925 0.00101465 1e-05
0.0228332 0.00101322 1e-05
0.022974 0.00101174 1e-05
0.0231147 0.00101025 1e-05
0.0232555 0.00100877 1e-05
0.0233973 0.00100728 1e-05
0.0235391 0.00100576 1e-05
0.023681 0.00100419 1e-05
0.0238228 0.00100261 1e-05
0.0239647 0.00100103 1e-05
0.0241076 0.000999454 1e-05
0.0242505 0.000997834 1e-05
0.0243935 0.000996175 1e-05
0.0245364 0.000994499 1e-05
0.0246794 0.000992831 1e-05
0.0248234 0.000991157 1e-05
0.0249675 0.000989443 1e-05
0.0251115 0.000987687 1e-05
0.0252556 0.000985915 1e-05
0.0253996 0.000984151 1e-05
0.0255448 0.000982381 1e-05
0.02569 0.000980569 1e-05
0.0258351 0.000978714 1e-05
0.0259803 0.000976844 1e-05
0.0261255 0.000974982 1e-05
0.0262718 0.000973112 1e-05
0.0264181 0.000971199 1e-05
0.0265644 0.000969248 1e-05
0.0267107 0.00096728 1e-05
0.026857 0.000965316 1e-05
0.0270044 0.000963344 1e-05
0.0271519 0.000961328 1e-05
0.0272993 0.000959277 1e-05
0.0274467 0.00095721 1e-05
0.0275942 0.000955141 1e-05
0.0277428 0.000953063 1e-05
0.0278914 0.000950941 1e-05
0.0280399 0.000948787 1e-05
0.0281885 0.000946616 1e-05
0.0283371 0.00094444 1e-05
0.0284869 0.000942252 1e-05
0.0286366 0.00094002 1e-05
0.0287863 0.00093776 1e-05
0.0289361 0.000935483 1e-05
0.0290858 0.000933195 1e-05
0.0292367 0.000930894 1e-05
0.0293876 0.000928548 1e-05
0.0295385 0.000926178 1e-05
0.0296894 0.00092379 1e-05
0.0298403 0.000921386 1e-05
0.0299924 0.000918968 1e-05
0.0301445 0.000916504 1e-05
0.0302966 0.00091402 1e-05
0.0304486 0.000911517 1e-05
0.0306007 0.000908996 1e-05
0.030754 0.000906455 1e-05
0.0309072 0.000903873 1e-05
0.0310605 0.00090127 1e-05
0.0312138 0.000898648 1e-05
0.031367 0.000896006 1e-05
0.0315215 0.000893339 1e-05
0.0316759 0.000890634 1e-05
0.0318304 0.000887908 1e-05
0.0319848 0.000885162 1e-05
0.0321393 0.000882394 1e-05
0.0322949 0.000879595 1e-05
0.0324506 0.000876763 1e-05
0.0326062 0.000873908 1e-05
0.0327619 0.000871032 1e-05
0.0329175 0.000868134 1e-05
0.0330744 0.000865197 1e-05
0.0332313 0.000862231 1e-05
[...]
POINT_DATA 11960
 FIELD attributes 1
U 3 11960 float
9.9991 	0.00338237 	0 9.99879 	0.00856853 	0 9.99916 	0.0123262 	0 9.99954 	0.0160741 	0 9.99992 	0.0198122 	0 10.003 	0.0406682 	0 10.0034 	0.0140413 	0 10.0063 	0.0131732 	0 10.0091 	0.0123013 	0 10.0119 	0.0114258 	0 10.0152 	0.0311848 	0 10.0177 	0.0078895 	0 10.0203 	0.0083608 	0 10.0228 	0.00883526 	0 10.0254 	0.00931292 	0 10.0256 	0.0285022 	0 10.0288 	0.0115742 	0 10.0302 	0.0132187 	0 10.0316 	0.0148739 	0 10.033 	0.0165397 	0 10.0305 	0.0327613 	0 10.0349 	0.0204969 	0 10.0358 	0.0220962 	0 10.0367 	0.0237046 	0 10.0376 	0.0253221 	0 10.0333 	0.0375468 	0 10.0385 	0.0289672 	0 10.039 	0.0302463 	0 10.0395 	0.0315314 	0 10.04 	0.0328228 	0 10.0347 	0.0414186 	0 10.0401 	0.0357769 	0 10.0403 	0.036775 	0 10.0404 	0.0377772 	0 10.0405 	0.0387833 	0 10.035 	0.0444879 	0 10.0401 	0.0410506 	0 10.04 	0.0418139 	0 10.0398 	0.0425796 	0 10.0397 	0.0433478 	0 10.0347 	0.046872 	0 10.0389 	0.0450022 	0 10.0386 	0.0455672 	0 10.0383 	0.0461337 	0 10.038 	0.0467016 	0 10.0342 	0.0486473 	0 10.037 	0.0478436 	0 10.0366 	0.0482457 	0 10.0361 	0.0486486 	0 10.0357 	0.0490524 	0 10.0337 	0.0499 	0 10.0348 	0.0497027 	0 10.0344 	0.0498905 	0 10.0341 	0.0500785 	0 10.0337 	0.0502668 	0 10.0333 	0.0504541 	0 10.0332 	0.0505357 	0 10.033 	0.0506174 	0 10.0328 	0.0506991 	0 10.0327 	0.0507808 	0 10.0324 	0.0507716 	0 10.032 	0.0510027 	0 10.0314 	0.051163 	0 10.0308 	0.0513235 	0 10.0302 	0.0514843 	0 10.0291 	0.0513243 	0 10.0291 	0.0516524 	0 10.0285 	0.0517286 	0 10.0279 	0.0518048 	0 10.0273 	0.0518812 	0 10.0256 	0.0514839 	0 10.0263 	0.0518688 	0 10.0257 	0.0518794 	0 10.0251 	0.05189 	0 10.0245 	0.0519006 	0 10.0223 	0.0513419 	0 10.0237 	0.0517581 	0 10.0231 	0.0517242 	0 10.0226 	0.0516903 	0 10.022 	0.0516563 	0 10.0192 	0.0509962 	0 10.0216 	0.0514097 	0 10.0212 	0.0513306 	0 10.0208 	0.0512516 	0 10.0204 	0.0511724 	0 10.0171 	0.0504286 	0 10.0205 	0.0506092 	0 10.0204 	0.0502228 	0 10.0203 	0.0498363 	0 10.0201 	0.0494497 	0 10.0163 	0.0483462 	0 10.021 	0.0478747 	0 10.0212 	0.0467074 	0 10.0214 	0.0455397 	0 10.0216 	0.0443716 	0 10.0172 	0.0425706 	0 10.0222 	0.0420889 	-3.22254e-21 10.022 	0.0406631 	-8.54835e-21 10.0218 	0.0392367 	-1.38751e-20 10.0216 	0.0378099 	-1.92028e-20 10.0167 	0.0357313 	-2.48876e-20 10.0212 	0.0355533 	-3.82419e-20 10.0206 	0.034271 	-3.80853e-20 10.02 	0.0329881 	-3.79236e-20 10.0194 	0.0317045 	-3.77567e-20 10.0144 	0.029577 	-2.36159e-20 10.0184 	0.0296709 	-2.51975e-20 10.0176 	0.02848 	-2.84852e-20 10.0168 	0.0272883 	-3.1775e-20 10.016 	0.0260959 	-3.50668e-20 10.011 	0.0238753 	-3.89274e-20 10.0145 	0.0241898 	-5.0347e-20 10.0135 	0.0231818 	-5.01877e-20 10.0125 	0.0221731 	-5.00251e-20 10.0114 	0.0211635 	-4.98593e-20 10.0066 	0.0190506 	-4.068e-20 10.0094 	0.0195248 	-2.96079e-20 10.0082 	0.0187693 	-1.79181e-20 10.0069 	0.0180132 	-6.22876e-21 10.0056 	0.0172564 	5.46001e-21 10.001 	0.0154481 	1.72175e-20 10.0031 	0.01593 	1.12489e-20 10.0015 	0.0153643 	7.07902e-21 10 	0.0147982 	2.90926e-21 9.99849 	0.0142315 	-1.26035e-21 9.9942 	0.0127781 	-2.16497e-21 9.99548 	0.0131364 	3.85266e-21 9.99372 	0.0126803 	4.58836e-21 9.99196 	0.0122237 	5.3215e-21 9.9902 	0.0117669 	6.05209e-21 9.98626 	0.0106532 	9.30256e-22 9.98667 	0.010826 	1.55395e-20 9.98466 	0.010429 	1.90252e-20 9.98264 	0.0100317 	2.25068e-20 9.98062 	0.0096341 	2.59843e-20 9.97705 	0.00882402 	2.00741e-20 9.9765 	0.008799 	1.69082e-20 9.9742 	0.00842961 	1.26268e-20 9.97189 	0.00805997 	8.34558e-21 9.96958 	0.00769008 	4.0646e-21 9.96644 	0.00713103 	-4.44197e-22 9.96478 	0.00692183 	5.97365e-21 9.96216 	0.00655821 	1.22582e-20 9.95953 	0.00619437 	1.8543e-20 9.9569 	0.00583032 	2.48281e-20 9.95425 	0.00546069 	3.11063e-20 9.95418 	0.00545268 	3.0909e-20 9.95408 	0.00544032 	3.07046e-20 9.95398 	0.00542796 	3.05002e-20 9.95388 	0.0054156 	3.02958e-20 9.95379 	0.00540326 	3.00917e-20 9.95088 	0.00504113 	2.45465e-20 9.94797 	0.0046788 	1.90034e-20 9.94505 	0.00431628 	1.34626e-20 9.94213 	0.00395357 	7.92394e-21 9.9341 	0.00356538 	1.01437e-22 9.93564 	0.00322649 	-8.87743e-21 9.93224 	0.00283611 	-1.55841e-20 9.92884 	0.00244555 	-2.22932e-20 9.92544 	0.00205479 	-2.90047e-20 9.91108 	0.00150238 	-3.10134e-20 9.91779 	0.00129005 	-1.86309e-20 9.91398 	0.000878401 	-6.24611e-21 9.91017 	0.000466568 	6.13867e-21 9.90636 	5.45517e-05 	1.85235e-20 9.8853 	-0.000735904 	2.96789e-20 9.89752 	-0.000761808 	4.17375e-20 9.89328 	-0.0011982 	4.73435e-20 9.88903 	-0.00163477 	5.29515e-20 9.88477 	-0.00207153 	5.85615e-20 9.85668 	-0.00315191 	5.34191e-20 9.87464 	-0.00295972 	4.69843e-20 9.86994 	-0.00342187 	4.06275e-20 9.86522 	-0.0038842 	3.42695e-20 9.86051 	-0.00434673 	2.79103e-20 9.82519 	-0.00573698 	2.4804e-20 9.84898 	-0.00532029 	1.27989e-20 9.84379 	-0.0058082 	-1.90773e-21 9.8386 	-0.00629631 	-1.66141e-20 9.83341 	-0.00678464 	-3.13201e-20 9.79085 	-0.00847866 	-3.95731e-20 9.82039 	-0.00785217 	-2.31845e-20 9.81472 	-0.00836569 	-2.23811e-20 9.80904 	-0.00887946 	-2.15723e-20 9.80335 	-0.00939347 	-2.07583e-20 9.75372 	-0.0113648 	-3.99706e-20 9.78879 	-0.0105593 	-3.42626e-20 9.78263 	-0.0110983 	-2.45495e-20 9.77645 	-0.0116376 	-1.48357e-20 9.77027 	-0.0121772 	-5.12105e-21 9.7139 	-0.0143841 	0 9.75413 	-0.0134417 	-2.64553e-21 9.74748 	-0.0140063 	-7.78408e-21 9.74081 	-0.0145711 	-1.29222e-20 9.73414 	-0.0151364 	-1.80598e-20 9.67153 	-0.0175262 	-1.74203e-20 9.71642 	-0.0164966 	-2.0295e-20 9.70927 	-0.0170868 	-2.01725e-20 9.70212 	-0.0176773 	-2.00491e-20 9.69496 	-0.0182683 	-1.99247e-20 9.62676 	-0.0207818 	-1.85842e-20 9.67568 	-0.0197187 	-1.76429e-20 9.66807 	-0.0203348 	-1.23239e-20 9.66045 	-0.0209514 	-7.00441e-21 9.65281 	-0.0215683 	-1.68439e-21 9.57979 	-0.0241427 	-2.43622e-21 9.63204 	-0.0231015 	-2.78345e-21 9.62397 	-0.0237439 	-1.21695e-20 9.61589 	-0.0243867 	-2.15545e-20 9.6078 	-0.02503 	-3.09386e-20 9.5308 	-0.0276011 	-3.31265e-20 9.58561 	-0.0266372 	4.70223e-21 9.5771 	-0.0273061 	5.71268e-21 9.56859 	-0.0279755 	6.73043e-21 9.56006 	-0.0286456 	7.7555e-21 9.48002 	-0.03115 	-3.19496e-20 9.53657 	-0.030317 	-3.01699e-20 9.52766 	-0.0310126 	-2.03838e-20 9.51873 	-0.031709 	-1.05966e-20 9.50978 	-0.0324059 	-8.08321e-22 9.42765 	-0.0347826 	0 9.48515 	-0.0341314 	0 9.47584 	-0.034854 	0 9.46652 	-0.0355772 	0 9.45708 	-0.0363031 	0 9.37391 	-0.0384921 	0 9.42922 	-0.0381112 	0 9.42189 	-0.0388196 	9.73935e-21 9.4122 	-0.0395697 	1.9842e-20 9.39651 	-0.0404178 	2.99457e-20 9.319 	-0.0422719 	4.00731e-20 9.36847 	-0.0422277 	2.96058e-20 9.36606 	-0.0428983 	3.6762e-20 9.35603 	-0.0436744 	4.64969e-20 9.33494 	-0.0445855 	5.75153e-20 9.26312 	-0.0461138 	7.44505e-20 9.30688 	-0.0463925 	5.66802e-20 9.30862 	-0.0470764 	4.42324e-20 9.29827 	-0.0478775 	3.33113e-20 9.27269 	-0.0487921 	2.72144e-20 9.20646 	-0.0500084 	3.40159e-20 9.24472 	-0.050592 	2.67132e-20 9.24986 	-0.0513385 	1.42852e-20 9.23922 	-0.0521633 	-5.84972e-22 9.21003 	-0.0530243 	-1.05863e-20 9.14923 	-0.0539465 	-1.22792e-20 9.18225 	-0.0548149 	3.60399e-20 9.19006 	-0.055671 	5.72865e-20 9.17915 	-0.0565184 	5.84404e-20 9.14721 	-0.057273 	3.64143e-20 9.09158 	-0.0579228 	-1.17236e-20 9.1197 	-0.0590542 	-9.717e-21 9.12949 	-0.0600634 	-6.51439e-21 9.11834 	-0.0609324 	-1.9438e-21 9.08444 	-0.0615325 	0 9.0337 	-0.0619337 	0 9.05726 	-0.0633041 	0 9.06843 	-0.0645043 	0 9.05705 	-0.0653936 	0 9.02191 	-0.0657965 	0 8.97571 	-0.0659738 	0 8.99512 	-0.0675577 	0 9.00711 	-0.0689814 	0 8.99553 	-0.0698892 	0 8.95978 	-0.0700588 	0 8.91777 	-0.0700381 	0 8.9334 	-0.0718096 	0 8.94576 	-0.0734828 	7.75905e-22 8.93401 	-0.0744078 	7.36393e-21 8.89818 	-0.0743151 	2.38964e-20 8.85998 	-0.0741227 	4.14047e-20 8.87222 	-0.0760559 	1.58449e-19 8.8844 	-0.0779911 	2.75494e-19 8.87198 	-0.0789003 	2.70553e-19 8.83722 	-0.0785629 	1.51621e-19 8.80246 	-0.0782254 	3.26867e-20 8.81169 	-0.0802948 	-2.68397e-20 8.82086 	-0.0823664 	-8.63612e-20 8.8087 	-0.0832575 	-9.34937e-20 8.77701 	-0.0828014 	-5.07772e-20 8.74532 	-0.0823451 	-8.06022e-21 8.7519 	-0.0845263 	-5.64826e-21 8.7584 	-0.0867099 	-3.23281e-21 8.74657 	-0.0875816 	6.21788e-21 8.7176 	-0.0870322 	1.29238e-20 8.68864 	-0.0864824 	1.96304e-20 8.69289 	-0.0887525 	1.22415e-20 8.69706 	-0.0910249 	4.84737e-21 8.68563 	-0.0918767 	1.65293e-20 8.65906 	-0.0912583 	4.79144e-20 8.63251 	-0.0906394 	7.93007e-20 8.63473 	-0.0929768 	1.34113e-19 8.63687 	-0.0953166 	1.8892e-19 8.62588 	-0.0961488 	1.8024e-19 8.60142 	-0.095484 	1.05536e-19 8.57698 	-0.0948188 	3.08306e-20 8.57744 	-0.0972038 	1.92818e-20 8.57782 	-0.0995913 	7.73736e-21 8.56732 	-0.100404 	-4.90237e-21 8.5447 	-0.0997138 	-1.75269e-20 8.5221 	-0.0990229 	-3.01524e-20 8.52104 	-0.101438 	-1.71228e-20 8.5199 	-0.103855 	-4.09e-21 8.50993 	-0.10465 	1.36028e-21 8.48891 	-0.103953 	1.08583e-20 8.46791 	-0.103256 	2.03574e-20 8.46554 	-0.105685 	1.02683e-20 8.46309 	-0.108118 	1.7453e-22 8.45353 	-0.108875 	1.35923e-20 8.43405 	-0.108211 	2.32388e-20 8.41444 	-0.107524 	3.28196e-20 8.41095 	-0.109957 	6.60405e-20 8.40656 	-0.112162 	9.43238e-20 8.39697 	-0.112907 	9.10988e-20 8.38012 	-0.112498 	5.39353e-20 8.36172 	-0.111838 	9.38769e-21 8.35726 	-0.114264 	1.38805e-20 8.35127 	-0.116204 	1.01777e-20 8.34176 	-0.116966 	-1.33392e-20 8.32711 	-0.116827 	-3.37801e-20 8.30975 	-0.116207 	-5.25843e-20 8.30445 	-0.118618 	-1.57707e-19 8.29724 	-0.120289 	-2.11125e-19 8.28779 	-0.121072 	-2.02418e-19 8.27498 	-0.121208 	-1.45049e-19 8.25852 	-0.120639 	-3.46915e-20 8.2525 	-0.123029 	-2.15716e-20 8.24438 	-0.124437 	-1.05711e-20 8.23498 	-0.125242 	-8.69499e-22 8.22369 	-0.125654 	1.09018e-20 8.20802 	-0.125145 	2.7523e-20 8.20136 	-0.12751 	5.05072e-20 8.19258 	-0.128662 	4.6205e-20 8.18322 	-0.129491 	3.46596e-20 8.1732 	-0.130176 	2.04664e-20 8.15822 	-0.129733 	-1.42356e-20 8.151 	-0.132072 	-1.01323e-19 8.14177 	-0.132979 	-1.04531e-19 8.13244 	-0.133834 	-1.04707e-19 8.12307 	-0.13469 	-1.04871e-19 8.10908 	-0.134413 	-4.11873e-20 8.10115 	-0.136518 	-3.30752e-20 8.09187 	-0.137401 	-3.62233e-20 8.08256 	-0.138284 	-3.93762e-20 8.07321 	-0.139167 	-4.25337e-20 8.06058 	-0.139194 	-5.29708e-20 8.05208 	-0.141028 	-9.55371e-20 8.04282 	-0.141941 	-9.08829e-20 8.03351 	-0.142853 	-8.62162e-20 8.02416 	-0.143766 	-8.1537e-20 8.01269 	-0.144088 	-4.40007e-20 8.00379 	-0.145668 	-3.44585e-20 7.99452 	-0.146612 	-2.51087e-20 7.98521 	-0.147556 	-1.57611e-20 7.97586 	-0.148501 	-6.41589e-21 7.96534 	-0.149107 	2.73883e-21 7.9562 	-0.15045 	-1.85538e-21 7.94691 	-0.151428 	-4.46215e-21 7.93759 	-0.152407 	-7.06954e-21 7.92822 	-0.153387 	-9.67752e-21 7.9185 	-0.154266 	-1.01542e-20 7.91443 	-0.15482 	-5.07496e-21 7.91035 	-0.155265 	-5.17134e-22 7.90626 	-0.155711 	4.03916e-21 7.90217 	-0.156157 	8.59391e-21 7.89818 	-0.15659 	1.3018e-20 7.89265 	-0.157165 	1.79533e-20 7.88709 	-0.157739 	2.28829e-20 7.88153 	-0.158315 	2.78068e-20 7.87594 	-0.15889 	3.2725e-20 7.87121 	-0.159343 	4.47762e-20 7.86101 	-0.160513 	5.47916e-20 7.8512 	-0.161571 	5.89967e-20 7.84133 	-0.162629 	6.32122e-20 7.83141 	-0.163688 	6.7438e-20 7.82384 	-0.164412 	5.60284e-20 7.81282 	-0.165819 	4.20578e-20 7.80295 	-0.166916 	2.9765e-20 7.79302 	-0.168015 	1.74687e-20 7.78304 	-0.169114 	5.16887e-21 7.7769 	-0.169672 	0 7.76507 	-0.171312 	0 7.75512 	-0.172451 	0 7.74512 	-0.173592 	0 7.73507 	-0.174733 	0 7.73032 	-0.175132 	0 7.71767 	-0.177002 	4.13161e-22 7.70764 	-0.178185 	4.63785e-21 7.69755 	-0.179369 	8.86103e-21 7.68779 	-0.180501 	1.3079e-20 7.68403 	-0.180802 	1.72368e-20 7.67106 	-0.182771 	4.81479e-20 7.66042 	-0.18413 	5.47452e-20 7.65023 	-0.185359 	5.61971e-20 7.64194 	-0.186324 	4.74928e-20 7.63796 	-0.186694 	1.6078e-20 7.62494 	-0.188691 	1.14432e-20 7.6134 	-0.190296 	4.55565e-21 7.60309 	-0.191573 	-4.22598e-21 7.59623 	-0.192377 	-1.03187e-20 7.59201 	-0.192817 	-1.43439e-20 7.57894 	-0.194844 	-4.41936e-20 7.56648 	-0.196694 	-6.59394e-20 7.55605 	-0.198019 	-6.35484e-20 7.55058 	-0.19867 	-3.47102e-20 7.54611 	-0.19918 	-3.91216e-22 7.53296 	-0.201238 	-3.40249e-20 7.51973 	-0.203296 	-6.76581e-20 7.50959 	-0.204627 	-6.38712e-20 7.50489 	-0.205208 	-2.60934e-20 7.50017 	-0.205789 	1.16864e-20 7.48693 	-0.20788 	7.23255e-21 7.4736 	-0.209971 	2.77625e-21 7.46407 	-0.211348 	-4.84203e-21 7.45911 	-0.211998 	-1.24667e-20 7.45411 	-0.212649 	-2.00904e-20 7.44075 	-0.214775 	-1.14982e-20 7.42731 	-0.216901 	-2.90102e-21 7.41838 	-0.218326 	-2.39273e-21 7.41312 	-0.219046 	-1.00481e-20 7.40783 	-0.219766 	-1.77023e-20 7.39435 	-0.221927 	-9.03638e-21 7.38077 	-0.224089 	-3.653e-22 7.37245 	-0.22555 	-3.44498e-24 7.36683 	-0.226352 	3.58827e-21 7.36124 	-0.22714 	7.26e-21 7.3476 	-0.229337 	3.43823e-20 7.3353 	-0.231347 	5.38921e-20 7.32697 	-0.23283 	5.189e-20 7.32016 	-0.233916 	3.36857e-20 7.31424 	-0.234769 	6.00843e-21 7.30043 	-0.237001 	1.80495e-21 7.28961 	-0.238833 	-4.53554e-21 7.28101 	-0.240367 	-1.24671e-20 7.27301 	-0.241733 	-2.3228e-20 7.26674 	-0.24265 	-4.16082e-20 7.25274 	-0.244915 	-1.12415e-19 7.24336 	-0.24657 	-1.15335e-19 7.23447 	-0.248152 	-1.10203e-19 7.22551 	-0.249735 	-1.05034e-19 7.21864 	-0.250774 	-4.05084e-20 7.20558 	-0.25292 	-2.42538e-20 7.19645 	-0.254547 	-1.73352e-20 7.18724 	-0.256175 	-1.04205e-20 7.17798 	-0.257803 	-3.50966e-21 7.16983 	-0.259129 	-1.80832e-21 7.15823 	-0.261083 	-1.14569e-20 7.14877 	-0.262752 	-9.33594e-21 7.13924 	-0.264422 	-7.19979e-21 7.12964 	-0.266091 	-5.04835e-21 7.12021 	-0.267701 	-5.07517e-22 7.11738 	-0.268176 	-1.59562e-22 7.11498 	-0.268595 	-1.51827e-22 7.11258 	-0.269014 	-1.44093e-22 7.11018 	-0.269432 	-1.36361e-22 7.10781 	-0.269844 	-1.28773e-22 7.10001 	-0.271132 	-1.00913e-22 7.09216 	-0.27242 	-7.30424e-23 7.08427 	-0.273708 	-4.51603e-23 7.07634 	-0.274996 	-1.72668e-23 7.06862 	-0.276128 	0 7.05843 	-0.278038 	-2.58223e-23 7.04773 	-0.279775 	-6.48855e-23 7.03695 	-0.281513 	-1.03922e-22 7.0261 	-0.28325 	-1.42931e-22 7.01577 	-0.284626 	2.2392e-21 7.00574 	-0.286796 	2.13826e-20 6.99464 	-0.288559 	2.3736e-20 6.98347 	-0.290322 	2.61062e-20 6.97228 	-0.292044 	2.64966e-20 6.96179 	-0.293284 	3.61481e-21 6.95157 	-0.295566 	-2.46625e-20 6.94041 	-0.297493 	-3.44489e-20 6.9288 	-0.299275 	-3.67451e-20 6.91752 	-0.300806 	-2.39473e-20 6.90659 	-0.302075 	4.54677e-21 6.89592 	-0.304364 	2.05324e-21 6.88491 	-0.306551 	6.56213e-23 6.87286 	-0.308345 	5.26031e-24 6.86146 	-0.309679 	2.90855e-21 6.85006 	-0.310969 	6.09665e-21 6.83892 	-0.313257 	3.4643e-21 6.82769 	-0.315546 	8.34407e-22 6.81582 	-0.317328 	0 6.804 	-0.31863 	0 6.79212 	-0.319932 	0 6.78049 	-0.322212 	0 6.76876 	-0.324492 	0 6.75737 	-0.32632 	-7.16994e-22 6.74505 	-0.327624 	-5.86538e-21 6.73266 	-0.328929 	-1.10114e-20 6.72052 	-0.331191 	-4.71339e-21 6.70846 	-0.333334 	-7.58827e-22 6.69686 	-0.335118 	-3.77013e-21 6.68452 	-0.336622 	-9.72201e-21 6.67162 	-0.337919 	-1.7844e-20 6.65894 	-0.340155 	-3.0887e-20 6.64669 	-0.342049 	-3.13185e-20 6.63455 	-0.343812 	-2.69006e-20 6.62234 	-0.345575 	-2.24691e-20 6.60891 	-0.346859 	-1.1031e-21 6.59583 	-0.348963 	1.87262e-22 6.58323 	-0.350693 	5.81662e-21 6.57054 	-0.352423 	1.14493e-20 6.55776 	-0.354154 	1.70852e-20 6.54448 	-0.355703 	2.437e-20 6.53638 	-0.356859 	2.00224e-20 6.52847 	-0.357876 	1.73824e-20 6.52052 	-0.358892 	1.47438e-20 6.51254 	-0.359908 	1.21065e-20 6.50487 	-0.360882 	9.5805e-21 6.49999 	-0.361562 	8.19078e-21 6.4951 	-0.362242 	6.80262e-21 6.49019 	-0.362923 	5.41603e-21 6.48527 	-0.363603 	4.031e-21 6.4803 	-0.364186 	-1.18679e-21 6.46826 	-0.365946 	-1.82341e-21 6.45573 	-0.367579 	-3.82305e-21 6.44313 	-0.369213 	-5.82107e-21 6.43046 	-0.370847 	-7.81746e-21 6.41755 	-0.372141 	-1.62957e-20 6.40601 	-0.374151 	-2.20097e-20 6.39293 	-0.375715 	-2.12233e-20 6.37978 	-0.37728 	-2.04475e-20 6.36653 	-0.378774 	-1.86199e-20 6.35302 	-0.37982 	-1.01587e-20 6.34124 	-0.381849 	-2.73878e-21 6.32835 	-0.383559 	2.36053e-22 6.31465 	-0.385041 	6.3692e-23 6.30076 	-0.386195 	-5.65399e-21 6.28674 	-0.387157 	-1.46255e-20 6.27438 	-0.389088 	-7.46182e-21 6.26194 	-0.391019 	-3.04778e-22 6.24775 	-0.392358 	1.15694e-21 6.23329 	-0.393219 	-1.42357e-21 6.21876 	-0.394081 	-4.00784e-21 6.20584 	-0.395899 	-2.80915e-21 6.19284 	-0.397718 	-1.61525e-21 6.17916 	-0.399026 	-2.03567e-21 6.16421 	-0.399771 	-4.21453e-21 6.1492 	-0.400516 	-6.39681e-21 6.13573 	-0.402207 	-5.55764e-21 6.12217 	-0.403804 	-5.00669e-21 6.10847 	-0.40496 	-5.781e-21 6.09365 	-0.405767 	-8.65415e-21 6.07819 	-0.406379 	-1.27144e-20 6.06419 	-0.407929 	4.66678e-21 6.05011 	-0.409088 	1.3288e-20 6.03595 	-0.410091 	1.84036e-20 6.02172 	-0.411094 	2.35104e-20 6.00592 	-0.411583 	1.52687e-20 5.99144 	-0.41283 	1.19388e-20 5.97692 	-0.413663 	1.26954e-20 5.96234 	-0.414496 	1.34558e-20 5.9477 	-0.415329 	1.42199e-20 5.93263 	-0.416035 	1.56962e-20 5.92781 	-0.41635 	1.42874e-20 5.923 	-0.416558 	1.22982e-20 5.91819 	-0.416767 	1.03091e-20 5.91337 	-0.416976 	8.32001e-21 5.90861 	-0.417182 	6.35998e-21 5.89885 	-0.417635 	2.13805e-21 5.88907 	-0.418089 	-2.08391e-21 5.87926 	-0.418542 	-6.30588e-21 5.86942 	-0.418996 	-1.05279e-20 5.86028 	-0.419219 	-1.34633e-20 5.84568 	-0.41996 	-2.41508e-20 5.83099 	-0.420426 	-2.64309e-20 5.81624 	-0.420893 	-2.87193e-20 5.80145 	-0.421361 	-3.1016e-20 5.78843 	-0.421234 	-1.62069e-20 5.77362 	-0.422059 	1.73801e-21 5.75868 	-0.422414 	8.96656e-21 5.74369 	-0.422663 	1.3762e-20 5.72961 	-0.42259 	8.09564e-21 5.71655 	-0.422171 	-8.86047e-21 5.70156 	-0.422758 	-1.45744e-20 5.68651 	-0.423297 	-1.99048e-20 5.67143 	-0.42328 	-2.09788e-20 5.65826 	-0.422604 	-1.87396e-20 5.64508 	-0.421927 	-1.65007e-20 5.62999 	-0.422262 	-2.00546e-20 5.61485 	-0.422596 	-2.36119e-20 5.60091 	-0.422296 	-2.37218e-20 5.58771 	-0.42135 	-2.07187e-20 5.57449 	-0.420404 	-1.77152e-20 5.55939 	-0.420472 	-1.25439e-20 5.54465 	-0.420399 	-7.59295e-21 5.53156 	-0.419738 	-3.56139e-21 5.51843 	-0.418738 	-2.65761e-21 5.50527 	-0.417513 	-3.83641e-21 5.49025 	-0.417301 	-1.16177e-20 5.47682 	-0.416517 	-1.27658e-20 5.46387 	-0.415562 	-1.19264e-20 5.45092 	-0.414606 	-1.10869e-20 5.43792 	-0.413178 	-4.59478e-21 5.42382 	-0.412417 	-3.69091e-21 5.41109 	-0.411163 	-2.74454e-21 5.39837 	-0.409909 	-1.79806e-21 5.38566 	-0.408655 	-8.51468e-22 5.37295 	-0.407346 	0 5.37112 	-0.407197 	2.22885e-22 5.36945 	-0.406989 	7.48376e-22 5.36778 	-0.406781 	1.27385e-21 5.36612 	-0.406573 	1.79932e-21 5.36445 	-0.406364 	2.32551e-21 5.35404 	-0.405053 	4.95341e-21 5.34364 	-0.403741 	7.58184e-21 5.33326 	-0.402429 	1.02108e-20 5.32289 	-0.401118 	1.28403e-20 5.31363 	-0.39944 	1.6523e-20 5.30187 	-0.397958 	4.10164e-20 5.29024 	-0.396152 	4.54908e-20 5.27863 	-0.394345 	4.9954e-20 5.26711 	-0.392519 	5.33046e-20 5.2578 	-0.389955 	1.57052e-20 5.24646 	-0.388377 	1.00882e-20 5.23525 	-0.386449 	5.63406e-21 5.22412 	-0.384363 	1.70247e-21 5.21425 	-0.381857 	1.98624e-21 5.20538 	-0.37903 	5.4881e-21 5.19461 	-0.377167 	2.73331e-21 5.18387 	-0.375299 	0 5.17349 	-0.372884 	6.72656e-22 5.16505 	-0.36982 	7.52488e-21 5.15668 	-0.366758 	1.43709e-20 5.14655 	-0.364631 	8.9572e-21 5.13645 	-0.362505 	3.54043e-21 5.12766 	-0.359797 	3.03606e-21 5.11977 	-0.356532 	6.82637e-21 5.11195 	-0.353267 	1.06078e-20 5.10251 	-0.350908 	-1.44474e-20 5.09336 	-0.348466 	-3.62489e-20 5.0859 	-0.345461 	-3.57366e-20 5.07857 	-0.342153 	-1.9066e-20 5.07136 	-0.338727 	4.01239e-21 5.06266 	-0.336171 	5.56524e-21 5.05511 	-0.33324 	2.84958e-21 5.04831 	-0.330083 	-2.47281e-21 5.04158 	-0.326882 	-7.58684e-21 5.035 	-0.323339 	-1.10805e-20 5.02724 	-0.320575 	-8.47372e-21 5.02103 	-0.317311 	-1.03948e-20 5.0149 	-0.314048 	-1.23093e-20 5.00885 	-0.310787 	-1.42172e-20 5.00291 	-0.307337 	-1.68e-20 4.99663 	-0.304242 	-1.22868e-20 4.9911 	-0.300924 	-1.3914e-20 4.98566 	-0.297608 	-1.55221e-20 4.98031 	-0.294294 	-1.7111e-20 4.97505 	-0.290979 	-1.88542e-20 4.97491 	-0.290902 	-1.89028e-20 4.97479 	-0.29082 	-1.87142e-20 4.97467 	-0.290737 	-1.85255e-20 4.97454 	-0.290655 	-1.83369e-20 4.97442 	-0.290573 	-1.81478e-20 4.