/*--------------------------------*- C++ -*----------------------------------*\
| =========                 |                                                 |
| \\      /  F ield         | OpenFOAM: The Open Source CFD Toolbox           |
|  \\    /   O peration     | Version:  2.2.x                                 |
|   \\  /    A nd           | Web:      www.OpenFOAM.org                      |
|    \\/     M anipulation  |                                                 |
\*---------------------------------------------------------------------------*/
FoamFile
{
    version     2.0;
    format      ascii;
    class       volScalarField;
    location    "550";
    object      epsilon;
}
// * * * * * * * * * * * * * * * * * * * * * * * * * * * * * * * * * * * * * //

dimensions      [0 2 -3 0 0 0 0];

internalField   nonuniform List<scalar> 
12225
(
1739.11
3020.51
4030.08
4714.53
5131.95
5357.74
5455.56
5472.05
5439.03
5377.29
5300.09
5215.72
5129.3
5043.89
4961.27
4882.37
4806.47
4740.13
187.432
345.31
471.694
572.298
644.884
692.987
722.805
740.085
749.248
753.431
754.754
754.597
753.834
753.009
752.496
752.828
756.271
763.752
41.8453
72.5091
98.5903
120.69
138.681
152.658
163.124
170.716
176.059
179.706
182.116
183.652
184.595
185.159
185.51
185.806
186.241
186.668
20.3598
27.9831
35.4714
42.3253
48.3641
53.5232
57.8315
61.3664
64.2235
66.502
68.2969
69.6942
70.7692
71.5867
72.2018
72.6632
73.008
73.218
16.0562
18.2138
20.6757
23.1516
25.4995
27.6467
29.5642
31.249
32.7114
33.9683
35.04
35.9471
36.7102
37.3481
37.8782
38.3159
38.6723
38.9453
15.0131
15.5456
16.3131
17.1966
18.1161
19.0201
19.8781
20.6742
21.4012
22.0573
22.6442
23.1653
23.6254
24.0294
24.3824
24.6891
24.9532
25.1737
14.7583
14.7814
14.9213
15.1496
15.4364
15.7556
16.0876
16.4186
16.7391
17.0436
17.3285
17.5921
17.8338
18.054
18.2531
18.4321
18.5917
18.7304
14.7063
14.5999
14.5497
14.5524
14.5992
14.6793
14.7826
14.9003
15.0256
15.1533
15.2796
15.402
15.5186
15.6283
15.7305
15.8246
15.9105
15.9864
14.6923
14.5448
14.4247
14.3339
14.2712
14.2336
14.2169
14.2168
14.2293
14.251
14.279
14.311
14.3452
14.3802
14.4148
14.4484
14.4801
14.5086
14.6883
14.5275
14.3816
14.2517
14.1383
14.041
13.9587
13.8899
13.8329
13.786
13.7476
13.7162
13.6905
13.6694
13.652
13.6373
13.6247
13.6134
14.6872
14.5228
14.3691
14.2261
14.0938
13.9722
13.8609
13.7593
13.6669
13.5831
13.5069
13.4378
13.3749
13.3176
13.2653
13.2173
13.1732
13.1327
14.6868
14.5216
14.3659
14.2194
14.0816
13.9521
13.8307
13.717
13.6105
13.5109
13.4178
13.3308
13.2494
13.1733
13.1021
13.0355
12.973
12.9149
14.6866
14.5211
14.365
14.2176
14.0785
13.9471
13.823
13.7057
13.5949
13.4902
13.3913
13.2978
13.2094
13.1259
13.0469
12.9722
12.9015
12.8352
14.6865
14.5209
14.3646
14.217
14.0775
13.9456
13.8209
13.7028
13.5909
13.485
13.3845
13.2892
13.1988
13.1131
13.0316
12.9543
12.8809
12.8118
14.6864
14.5207
14.3643
14.2166
14.077
13.945
13.82
13.7017
13.5896
13.4833
13.3824
13.2867
13.1958
13.1095
13.0274
12.9494
12.8753
12.8055
14.6863
14.5206
14.3641
14.2163
14.0766
13.9445
13.8194
13.701
13.5888
13.4823
13.3814
13.2855
13.1945
13.1079
13.0257
12.9475
12.8731
12.8031
14.6863
14.5205
14.364
14.2161
14.0764
13.9442
13.8191
13.7005
13.5882
13.4817
13.3806
13.2847
13.1936
13.107
13.0246
12.9463
12.8718
12.8017
14.6863
14.5205
14.364
14.2161
14.0763
13.9441
13.8189
13.7003
13.588
13.4814
13.3803
13.2843
13.1931
13.1064
13.024
12.9457
12.8711
12.801
14.6863
14.5205
14.364
14.2161
14.0763
13.9441
13.8189
13.7003
13.588
13.4814
13.3803
13.2843
13.1931
13.1064
13.024
12.9456
12.8711
12.801
14.6863
14.5206
14.3641
14.2162
14.0765
13.9443
13.8191
13.7006
13.5883
13.4818
13.3808
13.2849
13.1938
13.1073
13.0251
12.9469
12.8726
12.8027
14.6864
14.5207
14.3642
14.2165
14.0769
13.9449
13.82
13.7019
13.5901
13.4842
13.3839
13.2889
13.1988
13.1134
13.0324
12.9556
12.8827
12.8144
14.6865
14.5209
14.3648
14.2177
14.0791
13.9486
13.8258
13.7104
13.6018
13.4999
13.404
13.314
13.2294
13.1499
13.0752
13.0049
12.9389
12.8774
14.6868
14.5224
14.369
14.2265
14.095
13.9742
13.8637
13.7628
13.6711
13.5877
13.512
13.4432
13.3806
13.3236
13.2716
13.224
13.1805
13.1411
14.6896
14.5346
14.3997
14.286
14.1933
14.12
14.0639
14.0227
13.9939
13.9754
13.9649
13.961
13.962
13.9668
13.9743
13.9838
13.9946
14.0065
14.712
14.6198
14.5883
14.6113
14.6786
14.7791
14.9026
15.0409
15.1874
15.3371
15.4864
15.6326
15.7738
15.9089
16.037
16.1578
16.271
16.3766
14.8713
15.1221
15.5436
16.0692
16.6494
17.2491
17.8451
18.423
18.9739
19.4929
19.9775
20.4267
20.841
21.2212
21.569
21.886
22.1742
22.4352
15.8759
17.7061
19.7886
21.8988
23.9447
25.8791
27.6794
29.3372
30.851
32.2236
33.4609
34.5702
35.5604
36.4406
37.22
37.9075
38.5115
39.0401
22.1652
31.1005
39.3163
46.8944
53.8928
60.2824
66.0512
71.2059
75.7649
79.7575
83.2228
86.206
88.7553
90.9189
92.7427
94.2678
95.5276
96.5415
68.0189
114.9
154.783
191.79
226.038
256.867
283.967
307.313
327.066
343.515
357.023
367.982
376.774
383.75
389.222
393.448
396.612
398.721
723.143
1065.45
1375.75
1655.21
1913.04
2142.31
2339.71
2504.9
2639.54
2746.48
2829.13
2890.97
2935.34
2965.29
2983.5
2992.26
2993.54
2988.82
0.84993
0.814276
1.16108
1.48904
1.85314
2.25187
2.76323
3.36086
4.04928
4.82392
5.67576
6.59742
7.58346
8.62982
9.73332
10.8914
12.102
13.3635
14.6749
16.0352
17.4444
18.9026
20.4106
21.9694
23.581
25.2479
26.9734
28.7619
30.619
32.552
34.5705
36.6871
38.9183
41.2752
43.7307
46.2876
48.9505
51.7246
54.6149
57.6266
60.7646
64.0343
67.4409
70.9896
74.6854
78.5337
82.5394
86.7076
91.0433
95.5512
100.236
105.102
110.154
115.396
120.832
126.466
132.301
138.34
144.586
151.042
157.711
164.593
171.692
179.007
186.54
194.29
202.26
210.446
218.85
227.469
236.301
245.345
254.597
264.055
273.714
283.57
293.618
303.853
314.269
324.859
335.616
346.532
357.598
368.805
380.143
391.601
403.168
414.831
426.579
438.398
450.274
462.196
474.149
486.124
498.108
510.096
522.086
534.084
546.107
558.192
570.405
582.654
594.793
606.814
618.705
630.45
642.035
653.441
664.651
675.647
686.406
696.906
707.123
717.033
726.61
735.823
744.643
753.039
760.977
768.421
775.334
781.677
787.409
792.489
796.873
800.518
803.379
805.412
806.573
806.817
806.105
804.399
801.662
797.867
792.988
787.007
779.916
771.714
762.407
752.014
740.564
728.099
714.669
700.336
685.183
669.283
652.698
635.761
619.049
604.844
593.983
583.266
572.32
561.142
549.778
538.277
526.699
515.1
503.536
492.052
480.695
469.509
458.525
447.778
437.297
427.104
417.223
407.668
398.452
389.585
381.069
372.904
365.08
357.567
350.312
343.188
335.96
328.276
319.901
307.212
2.79025
1.52243
1.46617
1.63894
1.90451
2.23868
2.63723
3.09289
3.59695
4.14055
4.71642
5.31943
5.94625
6.59478
7.2637
7.95225
8.6601
9.38728
10.1341
10.9013
11.6895
12.5001
13.3342
14.1934
15.0795
15.9944
16.9403
17.9196
18.935
19.9891
21.0847
22.2246
23.4109
24.6448
25.9262
27.2565
28.6376
30.0717
31.5607
33.1066
34.7115
36.3773
38.106
39.8994
41.7596
43.6882
45.687
47.7577
49.9019
52.1213
54.4171
56.7909
59.2438
61.777
64.3916
67.0885
69.8686
72.7325
75.6808
78.7139
81.832
85.0352
88.3235
91.6966
95.1541
98.6955
102.32
106.027
109.814
113.682
117.627
121.649
125.746
129.915
134.155
138.462
142.834
147.269
151.762
156.312
160.915
165.566
170.263
175.001
179.777
184.586
189.424
194.287
199.171
204.072
208.986
213.91
218.84
223.774
228.711
233.65
238.594
243.546
248.513
253.504
258.539
263.614
268.656
273.653
278.601
283.494
288.325
293.089
297.779
302.387
306.905
311.326
315.641
319.84
323.913
327.849
331.635
335.261
338.713
341.975
345.035
347.875
350.48
352.833
354.915
356.709
358.195
359.356
360.173
360.625
360.697
360.371
359.631
358.462
356.854
354.795
352.279
349.304
345.868
341.974
337.631
332.848
327.642
322.03
316.034
309.673
302.963
295.981
289.099
282.602
276.718
270.908
265.062
259.173
253.258
247.338
241.438
235.582
229.79
224.082
218.475
212.988
207.632
202.419
197.361
192.466
187.74
183.19
178.819
174.632
170.63
166.814
163.181
159.728
156.444
153.312
150.305
147.497
145.211
144.374
5.09823
2.55613
2.25369
2.31184
2.51197
2.80165
3.16132
3.57837
4.04151
4.54064
5.06768
5.61688
6.18453
6.76848
7.36766
7.98171
8.6108
9.25542
9.91633
10.5945
11.291
12.0072
12.7443
13.5039
14.2875
15.0967
15.9332
16.7986
17.6948
18.6234
19.586
20.5841
21.6191
22.6921
23.8045
24.9576
26.1529
27.392
28.6764
30.0077
31.3875
32.8171
34.2981
35.8318
37.4197
39.0632
40.7634
42.5218
44.3394
46.2174
48.1569
50.1589
52.2243
54.3539
56.5485
58.8088
61.1353
63.5284
65.9887
68.5162
71.111
73.7733
76.5027
79.2991
82.162
85.0908
88.0849
91.1432
94.2649
97.4486
100.693
103.997
107.358
110.775
114.246
117.769
121.341
124.961
128.625
132.331
136.077
139.859
143.676
147.523
151.398
155.298
159.22
163.162
167.119
171.089
175.071
179.06
183.056
187.055
191.058
195.062
199.068
203.076
207.088
211.106
215.132
219.139
223.112
227.042
230.926
234.758
238.535
242.251
245.901
249.48
252.982
256.402
259.731
262.964
266.092
269.108
272.003
274.768
277.394
279.868
282.182
284.323
286.279
288.036
289.582
290.903
291.986
292.815
293.376
293.656
293.64
293.316
292.671
291.694
290.376
288.709
286.687
284.308
281.569
278.473
275.024
271.228
267.096
262.634
257.864
252.776
247.488
242.043
236.595
231.257
226.088
220.954
215.815
210.673
205.542
200.44
195.385
190.394
185.484
180.67
175.963
171.375
166.917
162.594
158.416
154.386
150.509
146.789
143.228
139.827
136.587
133.509
130.592
127.834
125.235
122.791
120.508
118.452
116.843
116.198
7.45493
3.63654
3.0594
3.0109
3.15222
3.40089
3.72634
4.11192
4.54546
5.01696
5.51835
6.04361
6.58857
7.15064
7.72841
8.32135
8.92952
9.5534
10.1937
10.8515
11.5278
12.2239
12.941
13.6804
14.4436
15.232
16.0469
16.8899
17.7622
18.6654
19.6007
20.5695
21.573
22.6126
23.6895
24.8052
25.961
27.1583
28.3987
29.6836
31.0143
32.3922
33.8188
35.2954
36.8233
38.4039
40.0383
41.728
43.4739
45.2774
47.1394
49.0609
51.0431
53.0867
55.1926
57.3615
59.594
61.8908
64.2523
66.6788
69.1706
71.7277
74.3501
77.0377
79.7902
82.607
85.4876
88.4313
91.437
94.5037
97.6302
100.815
104.056
107.353
110.703
114.104
117.554
121.05
124.591
128.174
131.797
135.455
139.148
142.872
146.625
150.403
154.203
158.023
161.86
165.711
169.573
173.444
177.32
181.199
185.079
188.957
192.833
196.703
200.567
204.422
208.255
212.053
215.806
219.51
223.16
226.751
230.279
233.74
237.129
240.44
243.67
246.811
249.859
252.808
255.649
258.378
260.986
263.465
265.807
268.003
270.045
271.921
273.622
275.135
276.451
277.556
278.439
279.087
279.488
279.628
279.497
279.081
278.371
277.355
276.025
274.373
272.394
270.084
267.442
264.467
261.166
257.537
253.598
249.331
244.817
240.063
235.131
230.072
224.965
219.874
214.821
209.777
204.733
199.698
194.689
189.723
184.817
179.989
175.251
170.618
166.1
161.708
157.449
153.331
149.358
145.535
141.866
138.351
134.994
131.795
128.755
125.873
123.15
120.586
118.181
115.94
113.874
112.034
110.566
109.733
10.6628
4.81205
3.86501
3.68547
3.76005
3.96502
4.25598
4.61126
5.01725
5.46392
5.94345
6.44987
6.97884
7.52745
8.09392
8.6774
9.27768
9.89503
10.53
11.1836
11.8566
12.5502
13.2656
14.004
14.7667
15.5549
16.37
17.2133
18.086
18.9894
19.9249
20.8937
21.8972
22.9366
24.0132
25.1286
26.284
27.481
28.7209
30.0052
31.3355
32.713
34.1393
35.6159
37.1441
38.7254
40.3611
42.0527
43.8015
45.6088
47.4758
49.4038
51.394
53.4474
55.5651
57.7481
59.9972
62.3133
64.6969
67.1489
69.6694
72.259
74.9178
77.6459
80.4432
83.3093
86.2439
89.2463
92.3158
95.4514
98.6519
101.916
105.242
108.629
112.074
115.575
119.131
122.738
126.395
130.099
133.847
137.637
141.464
145.328
149.224
153.149
157.1
161.075
165.069
169.079
173.102
177.134
181.172
185.212
189.249
193.282
197.305
201.317
205.312
209.28
213.208
217.086
220.908
224.668
228.362
231.985
235.532
238.999
242.381
245.673
248.869
251.966
254.957
257.836
260.598
263.236
265.743
268.113
270.337
272.409
274.32
276.061
277.624
278.997
280.171
281.136
281.88
282.392
282.661
282.674
282.422
281.892
281.073
279.957
278.534
276.796
274.737
272.354
269.644
266.604
263.245
259.548
255.568
251.306
246.806
242.093
237.21
232.199
227.114
221.996
216.864
211.72
206.573
201.439
196.335
191.282
186.296
181.395
176.593
171.902
167.334
162.899
158.604
154.455
150.458
146.617
142.933
139.41
136.049
132.85
129.814
126.941
124.231
121.686
119.307
117.102
115.083
113.289
111.809
110.787
14.0384
5.98184
4.63101
4.30858
4.31163
4.47134
4.72803
5.05417
5.43408
5.85725
6.31599
6.80447
7.31838
7.85469
8.4114
8.98739
9.58219
10.1958
10.8287
11.4815
12.1551
12.8504
13.5686
14.3107
15.078
15.8716
16.6929
17.5429
18.423
19.3346
20.2787
21.2569
22.2703
23.3204
24.4086
25.5363
26.7049
27.9161
29.1712
30.4719
31.8198
33.2163
34.6632
36.162
37.7143
39.3218
40.9861
42.7088
44.4915
46.3358
48.2432
50.2151
52.2532
54.3588
56.5333
58.7779
61.0939
63.4825
65.9446
68.4812
71.0931
73.7809
76.5451
79.3861
82.3041
85.2991
88.3709
91.519
94.7429
98.0418
101.415
104.86
108.376
111.962
115.616
119.335
123.117
126.96
130.86
134.816
138.824
142.88
146.983
151.128
155.313
159.533
163.784
168.064
172.367
176.691
181.029
185.379
189.734
194.091
198.443
202.785
207.112
211.419
215.699
219.932
224.108
228.22
232.259
236.222
240.101
243.893
247.592
251.193
254.691
258.08
261.357
264.514
267.548
270.452
273.221
275.849
278.329
280.656
282.823
284.824
286.651
288.298
289.755
291.015
292.067
292.904
293.516
293.893
294.025
293.9
293.508
292.84
291.884
290.63
289.071
287.198
285.003
282.482
279.636
276.446
272.953
269.149
265.066
260.718
256.135
251.346
246.384
241.286
236.092
230.835
225.535
220.208
214.871
209.545
204.249
199.006
193.835
188.751
183.772
178.911
174.178
169.584
165.138
160.845
156.71
152.738
148.932
145.293
141.823
138.522
135.391
132.431
129.641
127.025
124.585
122.328
120.267
118.431
116.868
115.663
17.3481
7.09046
5.33361
4.86616
4.7965
4.91083
5.13405
5.43244
5.78781
6.18881
6.62762
7.09852
7.59729
8.12089
8.66725
9.23509
9.82377
10.4331
11.0634
11.7151
12.389
13.0859
13.8068
14.5528
15.325
16.1245
16.9527
17.8106
18.6996
19.6209
20.5759
21.5659
22.5924
23.6567
24.7603
25.9048
27.0917
28.3227
29.5993
30.9234
32.2967
33.7209
35.1978
36.7294
38.3174
39.9638
41.6704
43.4392
45.2721
47.1711
49.1379
51.1746
53.283
55.4648
57.7219
60.056
62.4687
64.9616
67.5361
70.1936
72.9352
75.7621
78.6752
81.6751
84.7625
87.9376
91.2006
94.5514
97.9895
101.514
105.125
108.82
112.599
116.459
120.399
124.416
128.507
132.671
136.904
141.203
145.564
149.985
154.461
158.989
163.564
168.183
172.841
177.534
182.256
187.003
191.769
196.547
201.333
206.119
210.898
215.663
220.407
225.121
229.79
234.393
238.922
243.368
247.724
251.984
256.14
260.187
264.12
267.932
271.618
275.173
278.59
281.864
284.991
287.964
290.779
293.428
295.908
298.213
300.337
302.275
304.022
305.57
306.915
308.048
308.963
309.651
310.107
310.321
310.285
309.989
309.423
308.58
307.449
306.02
304.284
302.235
299.862
297.159
294.143
290.803
287.161
283.221
279.005
274.529
269.818
264.898
259.798
254.551
249.19
243.743
238.234
232.683
227.114
221.55
216.014
210.529
205.115
199.792
194.576
189.481
184.519
179.703
175.039
170.535
166.197
162.029
158.034
154.215
150.571
147.106
143.818
140.71
137.782
135.036
132.477
130.111
127.949
126.011
124.321
122.928
20.4571
8.10925
5.96218
5.35341
5.21217
5.28186
5.47259
5.74447
6.07665
6.4567
6.87644
7.33013
7.81363
8.32395
8.85903
9.41751
9.99868
10.6022
11.2283
11.8774
12.5499
13.2468
13.969
14.7175
15.4933
16.2976
17.1316
17.9966
18.8938
19.8246
20.7903
21.7923
22.8323
23.9115
25.0318
26.1946
27.4018
28.6551
29.9563
31.3073
32.7102
34.1669
35.6795
37.2501
38.8809
40.5742
42.3321
44.157
46.0513
48.0171
50.0569
52.1731
54.3678
56.6434
59.0022
61.4464
63.9781
66.5994
69.3122
72.1184
75.0196
78.0175
81.1134
84.3085
87.6038
90.9999
94.4975
98.0966
101.797
105.599
109.501
113.502
117.601
121.796
126.086
130.467
134.937
139.492
144.131
148.849
153.641
158.506
163.437
168.43
173.482
178.586
183.739
188.933
194.164
199.425
204.71
210.011
215.32
220.628
225.927
231.207
236.459
241.671
246.811
251.866
256.827
261.685
266.43
271.055
275.553
279.917
284.139
288.213
292.133
295.892
299.485
302.906
306.149
309.208
312.078
314.755
317.232
319.507
321.574
323.43
325.071
326.492
327.689
328.656
329.389
329.883
330.133
330.133
329.877
329.356
328.564
327.492
326.135
324.482
322.517
320.252
317.675
314.784
311.585
308.077
304.273
300.179
295.812
291.188
286.326
281.25
275.987
270.564
265.011
259.354
253.619
247.83
242.012
236.191
230.392
224.64
218.958
213.364
207.878
202.516
197.289
192.212
187.292
182.537
177.955
173.548
169.322
165.279
161.42
157.747
154.26
150.96
147.851
144.932
142.21
139.691
137.383
135.298
133.449
131.851
23.2783
9.02089
6.51197
5.76994
5.56007
5.58658
5.74589
5.99236
6.30246
6.66255
7.06398
7.50088
7.96913
8.46578
8.98882
9.53689
10.1092
10.7055
11.3258
11.9704
12.64
13.3351
14.0568
14.8061
15.5839
16.3915
17.2301
18.1009
19.0053
19.9447
20.9206
21.9344
22.9878
24.0824
25.2199
26.4022
27.6311
28.9086
30.2368
31.6179
33.054
34.5474
36.1006
37.7161
39.3963
41.1439
42.9615
44.852
46.8179
48.8622
50.9878
53.1973
55.4938
57.8799
60.3587
62.9327
65.6047
68.3775
71.2534
74.2349
77.3243
80.5237
83.8349
87.2598
90.7996
94.4557
98.2289
102.12
106.128
110.255
114.498
118.858
123.333
127.921
132.619
137.426
142.338
147.352
152.464
157.67
162.965
168.345
173.806
179.341
184.945
190.613
196.338
202.114
207.933
213.79
219.674
225.578
231.491
237.404
243.304
249.179
255.017
260.792
266.471
272.044
277.498
282.825
288.014
293.056
297.942
302.663
307.212
311.58
315.76
319.745
323.529
327.105
330.467
333.609
336.526
339.213
341.666
343.882
345.858
347.591
349.079
350.321
351.313
352.053
352.54
352.77
352.744
352.457
351.906
351.088
349.996
348.624
346.976
345.042
342.814
340.297
337.485
334.376
330.973
327.276
323.294
319.031
314.501
309.716
304.693
299.452
294.017
288.411
282.661
276.793
270.832
264.805
258.738
252.658
246.593
240.569
234.609
228.735
222.966
217.32
211.811
206.453
201.255
196.226
191.374
186.704
182.22
177.924
173.82
169.908
166.19
162.668
159.343
156.219
153.299
150.589
148.096
145.826
143.783
141.968
25.7523
9.81407
6.98106
6.11735
5.84347
5.829
5.95825
6.18034
6.46929
6.81028
7.19411
7.61471
8.0679
8.5508
9.0614
9.5984
10.161
10.749
11.3623
12.0013
12.6665
13.3586
14.0786
14.8274
15.6062
16.4161
17.2584
18.1345
19.0457
19.9936
20.9797
22.0057
23.0734
24.1844
25.3409
26.5447
27.798
29.103
30.462
31.8775
33.352
34.8882
36.4889
38.1569
39.8951
41.7066
43.5947
45.5624
47.6132
49.7503
51.9772
54.2973
56.714
59.2308
61.8511
64.5783
67.4158
70.3669
73.4346
76.622
79.9321
83.3675
86.9307
90.6239
94.4491
98.408
102.502
106.731
111.097
115.6
120.239
125.013
129.921
134.961
140.13
145.426
150.845
156.383
162.036
167.799
173.666
179.633
185.694
191.842
198.072
204.375
210.745
217.175
223.656
230.18
236.736
243.314
249.903
256.489
263.058
269.596
276.083
282.468
288.734
294.87
300.862
306.698
312.366
317.855
323.156
328.257
333.15
337.824
342.271
346.484
350.455
354.176
357.643
360.846
363.782
366.445
368.832
370.942
372.772
374.323
375.595
376.587
377.298
377.73
377.885
377.765
377.371
376.703
375.767
374.563
373.089
371.346
369.337
367.059
364.51
361.69
358.597
355.23
351.589
347.676
343.492
339.044
334.337
329.383
324.194
318.787
313.181
307.397
301.458
295.39
289.217
282.965
276.662
270.336
264.016
257.728
251.497
245.346
239.296
233.366
227.572
221.927
216.443
211.131
205.997
201.049
196.29
191.725
187.355
183.185
179.214
175.445
171.88
168.522
165.375
162.444
159.733
157.245
154.975
152.933
27.8395
10.4818
7.36932
6.3983
6.06651
6.0141
6.11502
6.31396
6.58277
6.90554
7.27255
7.6775
8.11614
8.5856
9.0839
9.6098
10.1626
10.7419
11.3479
11.9808
12.6413
13.3301
14.048
14.7963
15.576
16.3884
17.2349
18.117
19.0361
19.9939
20.9921
22.0326
23.1174
24.2483
25.4276
26.6576
27.9406
29.2792
30.676
32.1338
33.6556
35.2445
36.9035
38.6361
40.4457
42.3359
44.3104
46.373
48.5276
50.7782
53.1287
55.5834
58.1462
60.8213
63.6128
66.5248
69.5613
72.7262
76.0234
79.4565
83.0291
86.7445
90.6058
94.6156
98.7765
103.091
107.559
112.184
116.966
121.905
127.001
132.253
137.659
143.218
148.926
154.78
160.776
166.909
173.174
179.565
186.076
192.701
199.433
206.264
213.187
220.195
227.277
234.427
241.633
248.886
256.175
263.487
270.807
278.122
285.413
292.663
299.818
306.845
313.726
320.448
326.995
333.355
339.514
345.459
351.177
356.656
361.886
366.855
371.554
375.973
380.104
383.94
387.474
390.696
393.601
396.185
398.446
400.384
401.998
403.289
404.26
404.913
405.25
405.277
405.001
404.428
403.566
402.42
401.001
399.316
397.368
395.165
392.712
390.011
387.065
383.876
380.443
376.765
372.842
368.674
364.26
359.603
354.706
349.575
344.218
338.648
332.88
326.931
320.82
314.572
308.209
301.756
295.242
288.695
282.141
275.611
269.128
262.717
256.401
250.199
244.128
238.204
232.439
226.844
221.428
216.198
211.159
206.316
201.671
197.229
192.99
188.957
185.132
181.52
178.122
174.944
171.987
169.251
166.728
164.431
29.517
11.0206
7.67789
6.61609
6.23381
6.14733
6.22229
6.39972
6.64972
6.95547
7.30679
7.69717
8.1223
8.57928
9.06621
9.58186
10.1256
10.6971
11.2966
11.9244
12.5812
13.2678
13.9851
14.7345
15.5171
16.3343
17.1876
18.0787
19.0094
19.9813
20.9965
22.0571
23.1652
24.3232
25.5334
26.7986
28.1214
29.5049
30.952
32.466
34.0502
35.7083
37.444
39.2611
41.1637
43.156
45.2423
47.4271
49.7149
52.1105
54.6187
57.2441
59.9916
62.8659
65.8719
69.0144
72.298
75.7274
79.3071
83.0415
86.9345
90.9901
95.2118
99.6029
104.166
108.904
113.818
118.91
124.181
129.632
135.26
141.067
147.05
153.206
159.532
166.023
172.674
179.479
186.433
193.527
200.755
208.11
215.582
223.164
230.846
238.618
246.471
254.395
262.378
270.409
278.474
286.559
294.648
302.722
310.762
318.723
326.545
334.211
341.7
348.997
356.087
362.953
369.58
375.954
382.059
387.883
393.412
398.634
403.536
408.11
412.345
416.234
419.773
422.945
425.745
428.172
430.224
431.903
433.209
434.145
434.716
434.929
434.79
434.308
433.496
432.365
430.928
429.199
427.191
424.918
422.394
419.63
416.636
413.421
409.991
406.352
402.506
398.454
394.194
389.725
385.045
380.152
375.047
369.73
364.205
358.478
352.561
346.466
340.208
333.808
327.286
320.667
313.976
307.241
300.489
293.748
287.044
280.403
273.846
267.396
261.07
254.884
248.853
242.988
237.299
231.793
226.477
221.357
216.435
211.716
207.202
202.895
198.798
194.915
191.249
187.803
184.577
181.57
178.769
176.194
30.7783
11.4299
7.90894
6.77454
6.35036
6.2347
6.28686
6.44517
6.67839
6.96903
7.30655
7.68429
8.09789
8.54448
9.02218
9.52984
10.0669
10.6332
11.2289
11.8545
12.5108
13.1988
13.9195
14.6743
15.4647
16.2923
17.1588
18.0661
19.0161
20.011
21.053
22.1445
23.2882
24.4866
25.7427
27.0596
28.4403
29.8884
31.4075
33.0014
34.6739
36.4293
38.272
40.2065
42.2375
44.3699
46.6088
48.9595
51.4273
54.0177
56.7363
59.5886
62.5801
65.7163
69.0025
72.4442
76.0467
79.8154
83.7553
87.8711
92.1676
96.6489
101.319
106.181
111.238
116.493
121.947
127.601
133.457
139.515
145.773
152.229
158.883
165.731
172.768
179.988
187.383
194.945
202.669
210.545
218.564
226.718
234.996
243.388
251.882
260.468
269.135
277.87
286.659
295.491
304.349
313.218
322.078
330.908
339.666
348.274
356.718
364.979
373.025
380.841
388.411
395.719
402.747
409.478
415.896
421.986
427.732
433.121
438.14
442.777
447.022
450.866
454.302
457.32
459.914
462.082
463.823
465.137
466.029
466.503
466.568
466.232
465.508
464.407
462.947
461.145
459.021
456.595
453.886
450.915
447.704
444.27
440.631
436.802
432.795
428.619
424.279
419.78
415.121
410.3
405.312
400.154
394.82
389.308
383.614
377.741
371.692
365.476
359.102
352.586
345.946
339.202
332.377
325.499
318.593
311.685
304.803
297.97
291.212
284.548
277.999
271.58
265.309
259.196
253.252
247.487
241.908
236.519
231.327
226.334
221.544
216.96
212.585
208.422
204.475
200.746
197.234
193.937
190.84
187.968
31.6331
11.7122
8.06571
6.87805
6.4218
6.28303
6.31678
6.45958
6.67931
6.95805
7.28508
7.65365
8.0594
8.49952
8.97219
9.47639
10.0116
10.5779
11.1755
11.8052
12.4679
13.1646
13.897
14.6664
15.4746
16.3236
17.2154
18.1524
19.1368
20.1712
21.2583
22.401
23.6023
24.8654
26.1939
27.5914
29.0618
30.6091
32.2377
33.952
35.7568
37.657
39.6578
41.7645
43.9827
46.318
48.7765
51.3642
54.0874
56.9525
59.9659
63.1341
66.4636
69.9594
73.6275
77.474
81.5049
85.7256
90.1417
94.7582
99.5796
104.61
109.854
115.314
120.993
126.892
133.014
139.358
145.925
152.713
159.721
166.945
174.384
182.034
189.892
197.945
206.179
214.588
223.163
231.895
240.772
249.784
258.917
268.16
277.499
286.922
296.414
305.962
315.551
325.165
334.787
344.401
353.983
363.481
372.814
381.965
390.915
399.644
408.125
416.341
424.271
431.896
439.198
446.157
452.756
458.979
464.808
470.229
475.229
479.793
483.912
487.576
490.777
493.508
495.763
497.539
498.837
499.659
500.009
499.896
499.33
498.324
496.893
495.054
492.828
490.239
487.312
484.074
480.55
476.771
472.762
468.552
464.164
459.62
454.94
450.138
445.224
440.206
435.084
429.857
424.52
419.066
413.485
407.77
401.911
395.905
389.747
383.44
376.988
370.4
363.689
356.872
349.968
343.002
335.996
328.976
321.968
314.996
308.083
301.252
294.522
287.911
281.435
275.107
268.939
262.939
257.117
251.479
246.03
240.775
235.716
230.859
226.206
221.762
217.528
213.507
209.698
206.097
202.69
199.508
32.1107
11.8734
8.15271
6.93213
6.45514
6.30106
6.32267
6.45559
6.6673
6.93972
7.26209
7.62769
8.03225
8.47305
8.94844
9.45756
10.0001
10.5763
11.1867
11.8323
12.5142
13.2341
13.9935
14.7946
15.6395
16.5307
17.4708
18.4626
19.5091
20.6136
21.7793
23.0097
24.3086
25.6802
27.1287
28.6587
30.2749
31.9825
33.7865
35.6925
37.7061
39.8334
42.0804
44.4534
46.9589
49.6037
52.3944
55.3381
58.4419
61.713
65.1588
68.7872
72.6073
76.6189
80.8295
85.2458
89.8738
94.7191
99.7866
105.081
110.606
116.366
122.363
128.6
135.076
141.795
148.754
155.953
163.391
171.064
178.968
187.1
195.453
204.021
212.796
221.767
230.923
240.25
249.739
259.376
269.148
279.04
289.039
299.129
309.294
319.52
329.79
340.09
350.402
360.71
370.988
381.23
391.344
401.274
411.005
420.517
429.788
438.798
447.522
455.941
464.032
471.774
479.149
486.135
492.715
498.869
504.583
509.838
514.623
518.922
522.725
526.023
528.808
531.073
532.814
534.03
534.721
534.89
534.545
533.697
532.357
530.543
528.273
525.568
522.455
518.96
515.117
510.955
506.511
501.818
496.913
491.828
486.597
481.249
475.811
470.303
464.742
459.139
453.499
447.82
442.098
436.323
430.482
424.562
418.549
412.429
406.193
399.835
393.351
386.743
380.02
373.191
366.272
359.282
352.242
345.176
338.106
331.056
324.05
317.108
310.252
303.498
296.864
290.364
284.009
277.811
271.778
265.917
260.234
254.735
249.424
244.306
239.383
234.661
230.141
225.827
221.715
217.806
214.081
210.58
32.2668
11.9238
8.17674
6.94472
6.46065
6.30193
6.32092
6.45317
6.66622
6.94212
7.27025
7.64408
8.05953
8.51411
9.00645
9.536
10.1029
10.7077
11.3513
12.0351
12.7608
13.5306
14.3469
15.2123
16.1297
17.1026
18.1342
19.2285
20.3895
21.622
22.9297
24.3168
25.7886
27.3504
29.0079
30.7668
32.6333
34.6136
36.7144
38.9424
41.3046
43.8079
46.4597
49.2674
52.2383
55.38
58.7
62.2058
65.905
69.805
73.9131
78.2364
82.7815
87.5528
92.5558
97.7955
103.276
109.003
114.978
121.205
127.686
134.422
141.414
148.661
156.162
163.916
171.918
180.167
188.656
197.38
206.332
215.505
224.89
234.477
244.256
254.214
264.337
274.611
285.021
295.552
306.187
316.909
327.702
338.548
349.431
360.329
371.227
382.113
392.957
403.759
414.459
424.961
435.261
445.34
455.181
464.762
474.063
483.061
491.734
500.059
508.016
515.582
522.737
529.462
535.736
541.542
546.862
551.681
555.984
559.759
562.994
565.681
567.813
569.384
570.392
570.835
570.717
570.042
568.82
567.064
564.79
562.015
558.764
555.061
550.935
546.421
541.553
536.37
530.911
525.218
519.334
513.298
507.152
500.933
494.673
488.402
482.142
475.909
469.712
463.552
457.424
451.318
445.218
439.105
432.958
426.757
420.484
414.124
407.666
401.104
394.437
387.669
380.811
373.875
366.879
359.843
352.787
345.734
338.705
331.721
324.803
317.968
311.233
304.613
298.121
291.768
285.564
279.516
273.632
267.918
262.378
257.017
251.841
246.853
242.056
237.453
233.043
228.824
224.78
220.958
32.1953
11.8811
8.14962
6.92989
6.45666
6.30925
6.34118
6.48869
6.71987
7.0172
7.37046
7.77353
8.22279
8.7161
9.25265
9.83257
10.4568
11.127
11.8444
12.6109
13.4294
14.3032
15.2359
16.2314
17.294
18.4284
19.6395
20.9328
22.3138
23.7886
25.3633
27.0442
28.8382
30.7526
32.7947
34.9724
37.2935
39.7661
42.3982
45.1982
48.1743
51.3346
54.6873
58.2402
62.0012
65.9778
70.1771
74.6062
79.2715
84.1793
89.3351
94.7438
100.41
106.335
112.523
118.975
125.692
132.674
139.921
147.432
155.206
163.239
171.527
180.067
188.852
197.877
207.134
216.616
226.316
236.222
246.325
256.614
267.076
277.7
288.472
299.376
310.397
321.519
332.724
343.994
355.312
366.658
378.012
389.355
400.674
411.936
423.123
434.253
445.243
456.014
466.556
476.861
486.921
496.72
506.24
515.462
524.364
532.927
541.128
548.945
556.357
563.343
569.883
575.956
581.544
586.629
591.195
595.225
598.706
601.626
603.975
605.746
606.931
607.528
607.535
606.953
605.788
604.046
601.739
598.882
595.494
591.596
587.215
582.38
577.124
571.483
565.498
559.212
552.668
545.915
539
531.97
524.872
517.749
510.642
503.586
496.61
489.736
482.975
476.334
469.809
463.387
457.05
450.776
444.536
438.305
432.054
425.759
419.4
412.961
406.434
399.815
393.106
386.315
379.453
372.537
365.583
358.612
351.644
344.698
337.793
330.949
324.181
317.505
310.935
304.482
298.157
291.968
285.923
280.029
274.293
268.719
263.312
258.078
253.021
248.142
243.443
238.923
234.566
230.428
32.0736
11.7793
8.0964
6.91773
6.48204
6.37272
6.44559
6.63837
6.92021
7.27452
7.69193
8.16719
8.69817
9.28255
9.92087
10.6147
11.3663
12.1787
13.0554
14.0004
15.0185
16.1151
17.296
18.5676
19.937
21.4114
22.9987
24.7071
26.5453
28.5223
30.6472
32.9295
35.379
38.0057
40.8195
43.8305
47.0484
50.4827
54.1428
58.0372
62.1742
66.5613
71.2054
76.1123
81.2872
86.7345
92.4575
98.4591
104.741
111.304
118.148
125.272
132.673
140.348
148.292
156.5
164.965
173.682
182.643
191.841
201.269
210.917
220.775
230.834
241.084
251.513
262.111
272.867
283.768
294.803
305.957
317.217
328.571
340.004
351.499
363.042
374.617
386.207
397.793
409.355
420.877
432.342
443.718
454.987
466.167
477.187
487.999
498.526
508.797
518.81
528.559