/*--------------------------------*- C++ -*----------------------------------*\
| =========                 |                                                 |
| \\      /  F ield         | OpenFOAM: The Open Source CFD Toolbox           |
|  \\    /   O peration     | Version:  2.2.x                                 |
|   \\  /    A nd           | Web:      www.OpenFOAM.org                      |
|    \\/     M anipulation  |                                                 |
\*---------------------------------------------------------------------------*/
FoamFile
{
    version     2.0;
    format      ascii;
    class       volScalarField;
    location    "550";
    object      k;
}
// * * * * * * * * * * * * * * * * * * * * * * * * * * * * * * * * * * * * * //

dimensions      [0 2 -2 0 0 0 0];

internalField   nonuniform List<scalar> 
12225
(
0.773254
1.11727
1.35409
1.50336
1.59084
1.63716
1.65703
1.66037
1.65368
1.64114
1.6254
1.6081
1.59029
1.57258
1.55537
1.53883
1.52284
1.5088
0.492803
0.515897
0.520062
0.519336
0.515967
0.511065
0.505592
0.500232
0.495406
0.491344
0.488149
0.485841
0.484391
0.483746
0.483855
0.48475
0.48704
0.490679
0.412017
0.424095
0.421858
0.414167
0.404224
0.393409
0.382461
0.371809
0.361712
0.352321
0.343712
0.335915
0.328923
0.322711
0.317242
0.312483
0.308399
0.304803
0.381869
0.385949
0.386337
0.383939
0.379748
0.374467
0.368564
0.362355
0.35605
0.349796
0.343694
0.337809
0.332187
0.326853
0.321821
0.317096
0.312668
0.308536
0.375243
0.375519
0.374935
0.373413
0.371106
0.368205
0.364883
0.361286
0.357522
0.353679
0.34982
0.345994
0.342236
0.338574
0.335025
0.331603
0.328315
0.325185
0.373469
0.372204
0.370886
0.369331
0.367504
0.365429
0.363154
0.360729
0.358201
0.355611
0.352991
0.35037
0.347768
0.345204
0.342691
0.34024
0.337859
0.335575
0.372982
0.371101
0.36935
0.367626
0.365876
0.364075
0.362219
0.360314
0.358375
0.356415
0.354448
0.352486
0.350541
0.348622
0.346736
0.344891
0.343092
0.341361
0.372867
0.370792
0.36886
0.367023
0.365244
0.363498
0.36177
0.360052
0.358344
0.356647
0.354967
0.353308
0.351673
0.350068
0.348495
0.34696
0.345465
0.344028
0.372829
0.37068
0.368664
0.366759
0.364944
0.363201
0.361515
0.359875
0.358276
0.356713
0.355185
0.353692
0.352234
0.350811
0.349425
0.348077
0.346769
0.345515
0.372814
0.370635
0.368578
0.366633
0.364788
0.363033
0.361355
0.359745
0.358197
0.356704
0.355263
0.353869
0.352521
0.351217
0.349955
0.348734
0.347555
0.34643
0.372807
0.370616
0.368542
0.366578
0.364715
0.362946
0.361263
0.35966
0.358129
0.356665
0.355264
0.35392
0.35263
0.351391
0.350201
0.349056
0.347957
0.346913
0.372803
0.370607
0.368526
0.366553
0.364681
0.362903
0.361214
0.359608
0.35808
0.356623
0.355234
0.353909
0.352643
0.351433
0.350275
0.349168
0.348108
0.347107
0.3728
0.370601
0.368516
0.366539
0.364662
0.36288
0.361187
0.359577
0.358046
0.356589
0.355201
0.353879
0.352619
0.351417
0.35027
0.349175
0.348131
0.347146
0.372797
0.370597
0.36851
0.36653
0.36465
0.362865
0.361169
0.359556
0.358022
0.356562
0.355173
0.353849
0.352589
0.351387
0.350241
0.349148
0.348106
0.347124
0.372796
0.370594
0.368505
0.366523
0.364641
0.362854
0.361155
0.35954
0.358004
0.356542
0.35515
0.353825
0.352562
0.351358
0.35021
0.349115
0.348072
0.34709
0.372795
0.370592
0.368502
0.366518
0.364635
0.362846
0.361146
0.359529
0.357991
0.356527
0.355133
0.353806
0.352541
0.351335
0.350185
0.349088
0.348043
0.347059
0.372794
0.370591
0.3685
0.366515
0.364631
0.362841
0.361139
0.359521
0.357981
0.356516
0.355121
0.353792
0.352525
0.351318
0.350166
0.349068
0.348021
0.347036
0.372794
0.37059
0.368499
0.366514
0.364629
0.362839
0.361136
0.359517
0.357977
0.356511
0.355114
0.353784
0.352517
0.351308
0.350156
0.349057
0.348009
0.347022
0.372794
0.37059
0.3685
0.366515
0.36463
0.362839
0.361137
0.359517
0.357977
0.35651
0.355114
0.353784
0.352516
0.351307
0.350154
0.349054
0.348006
0.347019
0.372795
0.370591
0.368501
0.366517
0.364632
0.362842
0.36114
0.359521
0.357981
0.356515
0.355119
0.353789
0.352522
0.351313
0.350161
0.349061
0.348014
0.347027
0.372795
0.370593
0.368504
0.36652
0.364637
0.362848
0.361148
0.359531
0.357993
0.356529
0.355135
0.353807
0.352541
0.351334
0.350182
0.349083
0.348036
0.347049
0.372797
0.370596
0.368509
0.36653
0.364652
0.362869
0.361175
0.359565
0.358034
0.356576
0.355187
0.353862
0.352599
0.351393
0.35024
0.349138
0.348086
0.347093
0.3728
0.370606
0.368532
0.36657
0.364713
0.362953
0.361282
0.359692
0.358177
0.35673
0.355346
0.354021
0.352749
0.351529
0.350356
0.349229
0.348146
0.347118
0.372815
0.370662
0.368649
0.366761
0.36498
0.363289
0.361672
0.360118
0.358617
0.357163
0.355751
0.35438
0.353046
0.351748
0.350487
0.349261
0.348071
0.346932
0.372911
0.370959
0.369194
0.367544
0.365953
0.364384
0.362817
0.361246
0.359669
0.358089
0.356513
0.354944
0.35339
0.351856
0.350344
0.348861
0.347409
0.346006
0.373469
0.372366
0.371364
0.370237
0.368903
0.367357
0.365627
0.363755
0.361779
0.359733
0.357646
0.35554
0.353433
0.35134
0.349271
0.347238
0.345245
0.343317
0.376461
0.378228
0.378834
0.378173
0.37655
0.374272
0.371563
0.368577
0.365422
0.362172
0.358881
0.355588
0.352323
0.349109
0.345961
0.342892
0.339911
0.337042
0.392606
0.401341
0.402164
0.399516
0.395305
0.390342
0.385014
0.379525
0.373995
0.368503
0.363107
0.357848
0.352757
0.347856
0.34316
0.338678
0.334412
0.330372
0.438298
0.449784
0.450807
0.449577
0.447828
0.44585
0.443727
0.441504
0.439219
0.436909
0.434612
0.432364
0.430197
0.428135
0.426193
0.424377
0.422674
0.421026
0.544749
0.705345
0.836386
0.946125
1.04199
1.12366
1.19167
1.24712
1.29142
1.32607
1.35254
1.37217
1.38618
1.39559
1.4013
1.40404
1.40444
1.40297
0.00676481
0.0109246
0.0138341
0.0163247
0.0188815
0.0214953
0.0246334
0.0280621
0.0317677
0.0356921
0.0397699
0.0439556
0.0482206
0.0525462
0.05692
0.061333
0.0657793
0.070255
0.0747576
0.0792863
0.0838417
0.0884254
0.0930402
0.09769
0.10238
0.107117
0.111909
0.116765
0.1217
0.126727
0.131868
0.137147
0.142598
0.148252
0.154027
0.159923
0.165945
0.172101
0.178395
0.184832
0.191418
0.198156
0.205051
0.212108
0.219328
0.226717
0.234276
0.242007
0.249914
0.257998
0.266259
0.2747
0.28332
0.29212
0.3011
0.310258
0.319594
0.329106
0.338793
0.348652
0.35868
0.368875
0.379233
0.38975
0.400422
0.411244
0.422212
0.43332
0.444562
0.455933
0.467426
0.479035
0.490752
0.50257
0.514482
0.52648
0.538556
0.5507
0.562905
0.575161
0.587459
0.599788
0.612138
0.624499
0.636859
0.649207
0.661531
0.67382
0.686061
0.698242
0.710352
0.722377
0.734308
0.746136
0.757852
0.769452
0.780938
0.792316
0.803605
0.814842
0.826088
0.837284
0.848271
0.859046
0.869602
0.879932
0.890025
0.899871
0.909457
0.918773
0.927803
0.936534
0.94495
0.953034
0.960768
0.968133
0.975109
0.981673
0.987805
0.993478
0.998666
1.00334
1.00748
1.01104
1.01401
1.01634
1.01801
1.01898
1.01921
1.01868
1.01735
1.01519
1.01218
1.00828
1.00346
0.997725
0.991043
0.98341
0.974819
0.965279
0.954797
0.943399
0.931106
0.917961
0.904014
0.889306
0.873897
0.857962
0.842115
0.827836
0.816995
0.806414
0.795579
0.784467
0.773112
0.761555
0.749849
0.738046
0.726197
0.714345
0.702538
0.690818
0.679217
0.667776
0.656524
0.645491
0.634702
0.624178
0.613936
0.603995
0.594359
0.585035
0.576018
0.56728
0.55877
0.550356
0.541785
0.532619
0.522698
0.507992
0.014939
0.0263392
0.0355755
0.0428659
0.0490773
0.0549632
0.060939
0.0671987
0.073769
0.0806067
0.0876604
0.0948901
0.102269
0.109777
0.117404
0.125138
0.132973
0.140905
0.14893
0.157047
0.165257
0.17356
0.181962
0.190465
0.199076
0.207803
0.216653
0.225635
0.23476
0.244039
0.253482
0.2631
0.272903
0.282899
0.293094
0.303499
0.314125
0.324985
0.336088
0.347446
0.359068
0.370965
0.383145
0.395616
0.408387
0.421464
0.434856
0.448567
0.462604
0.476971
0.491672
0.506712
0.522093
0.537816
0.553885
0.570298
0.587057
0.604161
0.621608
0.639396
0.657522
0.675982
0.694771
0.713885
0.733318
0.753064
0.773114
0.793461
0.814098
0.835013
0.856199
0.877644
0.899337
0.921269
0.943427
0.9658
0.988374
1.01114
1.03408
1.05718
1.08043
1.10382
1.12733
1.15094
1.17464
1.19842
1.22226
1.24613
1.27003
1.29394
1.31783
1.3417
1.36552
1.38928
1.41296
1.43655
1.46004
1.48342
1.50669
1.52984
1.55282
1.57542
1.59776
1.61986
1.64172
1.66331
1.68464
1.70569
1.72644
1.74687
1.76696
1.7867
1.80606
1.82501
1.84353
1.86157
1.8791
1.89609
1.91249
1.92826
1.94333
1.95766
1.97118
1.98383
1.99554
2.00624
2.01586
2.02431
2.0315
2.03736
2.04181
2.04475
2.0461
2.04579
2.04374
2.03987
2.03414
2.02648
2.01687
2.00527
1.99168
1.9761
1.95855
1.93907
1.91772
1.89454
1.86958
1.84292
1.81548
1.78719
1.75878
1.72979
1.70026
1.67034
1.64013
1.60978
1.57941
1.54914
1.51906
1.4893
1.45992
1.43104
1.40271
1.375
1.34798
1.32169
1.29618
1.27149
1.24764
1.22466
1.20256
1.18137
1.16106
1.14162
1.12299
1.10504
1.08752
1.0697
1.05069
1.02758
0.0223242
0.0430494
0.0560242
0.0657183
0.0741831
0.0822397
0.0903132
0.0986129
0.107206
0.116086
0.125218
0.134566
0.144098
0.153793
0.163635
0.173614
0.183721
0.193952
0.204306
0.214781
0.22538
0.236105
0.246961
0.257955
0.269094
0.280386
0.29184
0.303468
0.31528
0.327288
0.339503
0.351938
0.364603
0.377511
0.390674
0.404106
0.41782
0.43183
0.446151
0.460793
0.475771
0.491096
0.50678
0.522833
0.539265
0.556085
0.573304
0.590927
0.608964
0.62742
0.6463
0.66561
0.685353
0.705533
0.72615
0.747207
0.768704
0.790639
0.813012
0.835818
0.859055
0.882717
0.906798
0.931292
0.956191
0.981486
1.00717
1.03322
1.05964
1.08641
1.11352
1.14095
1.16869
1.19673
1.22504
1.2536
1.28242
1.31145
1.34069
1.37012
1.39972
1.42946
1.45934
1.48932
1.5194
1.54954
1.57972
1.60993
1.64015
1.67034
1.70049
1.73058
1.76058
1.79047
1.82023
1.84984
1.87929
1.90856
1.93763
1.9665
1.99495
2.02304
2.05077
2.07815
2.10518
2.13184
2.15811
2.18399
2.20945
2.23447
2.25904
2.28313
2.30672
2.32977
2.35225
2.37413
2.39536
2.4159
2.43571
2.45473
2.47291
2.49017
2.50645
2.52168
2.53576
2.54862
2.56017
2.57031
2.57894
2.58595
2.59124
2.59471
2.59625
2.59575
2.59313
2.58828
2.58114
2.57163
2.5597
2.54531
2.52844
2.50908
2.48725
2.46297
2.43634
2.4073
2.37639
2.34373
2.30981
2.27481
2.23904
2.20245
2.16518
2.1274
2.08929
2.05101
2.01274
1.97461
1.93676
1.89932
1.8624
1.82612
1.79055
1.75578
1.72189
1.68893
1.65696
1.62602
1.59616
1.56739
1.53975
1.51324
1.48787
1.46362
1.44045
1.41827
1.39688
1.37579
1.35454
1.33244
0.0287602
0.057956
0.0742856
0.0863452
0.096742
0.106493
0.116109
0.125851
0.135841
0.146112
0.156657
0.16745
0.178465
0.189678
0.201069
0.212627
0.224341
0.236207
0.248223
0.260387
0.272702
0.285172
0.297802
0.3106
0.323572
0.336729
0.35008
0.363637
0.37741
0.391413
0.405657
0.420156
0.434924
0.449973
0.465319
0.480977
0.496961
0.513287
0.52997
0.547024
0.564464
0.582304
0.600557
0.619236
0.638352
0.657917
0.677943
0.698437
0.719411
0.74087
0.762824
0.785277
0.808236
0.831704
0.855683
0.880177
0.905187
0.93071
0.956747
0.983295
1.01035
1.0379
1.06595
1.09449
1.1235
1.15298
1.18292
1.2133
1.2441
1.27532
1.30694
1.33893
1.37128
1.40397
1.43699
1.4703
1.50388
1.53772
1.57179
1.60607
1.64053
1.67515
1.7099
1.74476
1.7797
1.8147
1.84973
1.88477
1.91978
1.95475
1.98963
2.02442
2.05907
2.09355
2.12785
2.16194
2.19579
2.22937
2.26266
2.29562
2.32808
2.36006
2.39159
2.42265
2.45323
2.48333
2.51292
2.54199
2.57052
2.5985
2.6259
2.6527
2.67888
2.7044
2.72924
2.75336
2.77672
2.79928
2.821
2.84181
2.86167
2.88051
2.89826
2.91484
2.93016
2.94414
2.95667
2.96767
2.97701
2.98458
2.99026
2.99395
2.9955
2.99482
2.99177
2.98626
2.97819
2.96747
2.95402
2.93779
2.91876
2.89688
2.87221
2.84464
2.81458
2.78209
2.74748
2.71098
2.67293
2.63356
2.59307
2.55157
2.50924
2.46631
2.42298
2.37945
2.3359
2.29251
2.24943
2.20681
2.16478
2.12346
2.08296
2.04336
2.00476
1.96721
1.93079
1.89553
1.86149
1.8287
1.79719
1.76698
1.73807
1.71047
1.68416
1.65908
1.63511
1.61197
1.58936
1.56746
0.0365208
0.0710516
0.0905014
0.104749
0.116885
0.128103
0.138996
0.149886
0.160943
0.172244
0.183814
0.195648
0.207731
0.220044
0.232569
0.245291
0.258202
0.271295
0.284566
0.298015
0.311643
0.325455
0.339456
0.353651
0.368051
0.382663
0.397498
0.412566
0.427881
0.443454
0.459299
0.47543
0.491861
0.508606
0.525683
0.543106
0.560892
0.579057
0.597618
0.616591
0.635992
0.655837
0.676141
0.696919
0.718184
0.739952
0.762233
0.78504
0.808385
0.832277
0.856725
0.881738
0.907323
0.933485
0.96023
0.987559
1.01548
1.04398
1.07308
1.10276
1.13302
1.16386
1.19527
1.22724
1.25977
1.29283
1.32643
1.36054
1.39514
1.43023
1.46577
1.50175
1.53815
1.57495
1.61211
1.64961
1.68744
1.72555
1.76392
1.80252
1.84132
1.8803
1.91942
1.95865
1.99797
2.03733
2.07672
2.11609
2.15541
2.19466
2.2338
2.27278
2.31159
2.35018
2.38851
2.42656
2.46429
2.50166
2.53867
2.57511
2.61098
2.64626
2.68096
2.71507
2.74856
2.78142
2.81365
2.84522
2.87612
2.90633
2.93584
2.96461
2.99264
3.01989
3.04633
3.07195
3.0967
3.12054
3.14344
3.16536
3.18623
3.206
3.2246
3.24196
3.258
3.27263
3.28575
3.29727
3.30706
3.315
3.32098
3.32487
3.32653
3.32582
3.32263
3.31681
3.30827
3.29687
3.28255
3.2652
3.24482
3.22126
3.19476
3.16533
3.13321
3.09853
3.06153
3.02246
2.98159
2.93915
2.89533
2.85032
2.80433
2.7576
2.71038
2.66288
2.61532
2.56788
2.52075
2.47408
2.42803
2.38273
2.3383
2.29483
2.25243
2.21117
2.17112
2.13234
2.09488
2.05877
2.02406
1.99076
1.95891
1.92852
1.89958
1.87209
1.84597
1.82109
1.79717
1.77464
0.0438786
0.0824553
0.104626
0.120826
0.134525
0.147051
0.159067
0.170939
0.182879
0.195002
0.207363
0.219984
0.232863
0.245993
0.259361
0.272956
0.286769
0.300794
0.315027
0.329467
0.344115
0.358975
0.374051
0.38935
0.40488
0.42065
0.436669
0.452949
0.469502
0.48634
0.503478
0.520928
0.538708
0.556831
0.575316
0.594178
0.613435
0.633105
0.653205
0.673754
0.694769
0.716268
0.738268
0.760786
0.783839
0.807443
0.831612
0.856361
0.881705
0.907654
0.934222
0.961418
0.989253
1.01773
1.04687
1.07666
1.10711
1.13823
1.17002
1.20247
1.23558
1.26935
1.30378
1.33885
1.37455
1.41088
1.44781
1.48534
1.52344
1.5621
1.60129
1.64099
1.68117
1.72181
1.76288
1.80434
1.84617
1.88833
1.93079
1.97352
2.01648
2.05963
2.10293
2.14636
2.18988
2.23344
2.27701
2.32056
2.36403
2.4074
2.45062
2.49365
2.53644
2.57896
2.62115
2.66297
2.70438
2.74533
2.78576
2.82549
2.86451
2.9028
2.94037
2.97719
3.01324
3.04852
3.083
3.11667
3.14952
3.18152
3.21267
3.24295
3.27234
3.30082
3.32836
3.35496
3.38057
3.40518
3.42874
3.45124
3.47262
3.49284
3.51184
3.52955
3.54591
3.56083
3.57423
3.58601
3.59606
3.60425
3.61047
3.61458
3.61643
3.61587
3.61278
3.60699
3.59838
3.5868
3.57216
3.55429
3.5333
3.5091
3.48182
3.45152
3.41836
3.38249
3.34411
3.30345
3.26076
3.21625
3.17012
3.1226
3.07393
3.02437
2.97417
2.9236
2.87286
2.82219
2.77177
2.72179
2.67241
2.62378
2.57602
2.52927
2.48361
2.43914
2.39593
2.35405
2.31355
2.2745
2.23692
2.20086
2.16634
2.1334
2.10206
2.07233
2.0442
2.01757
1.9922
1.96848
0.0505371
0.0921877
0.116678
0.134577
0.14965
0.163336
0.176345
0.18908
0.201781
0.214591
0.227593
0.24083
0.254319
0.268065
0.282065
0.296314
0.310804
0.325532
0.340495
0.355693
0.371126
0.386797
0.402712
0.418875
0.435296
0.451981
0.468942
0.486189
0.503733
0.521589
0.539769
0.558289
0.577164
0.59641
0.616044
0.636086
0.656552
0.677462
0.698835
0.720691
0.74305
0.765931
0.789354
0.813338
0.837902
0.863065
0.888845
0.915258
0.942323
0.970053
0.998464
1.02757
1.05738
1.08791
1.11916
1.15115
1.18388
1.21736
1.25159
1.28656
1.32229
1.35876
1.39597
1.43392
1.47259
1.51198
1.55206
1.59283
1.63425
1.67632
1.71901
1.76228
1.80611
1.85048
1.89534
1.94066
1.98641
2.03254
2.07902
2.1258
2.17285
2.22013
2.26758
2.31516
2.36284
2.41057
2.4583
2.50599
2.55359
2.60106
2.64834
2.69538
2.74213
2.78853
2.83453
2.88008
2.9251
2.96956
3.01329
3.05618
3.0982
3.13935
3.1796
3.21894
3.25733
3.29478
3.33125
3.36674
3.40122
3.4347
3.46714
3.49855
3.52891
3.55821
3.58643
3.61356
3.63959
3.66449
3.68826
3.71087
3.73229
3.7525
3.77146
3.7891
3.80538
3.82023
3.83359
3.84535
3.85543
3.8637
3.87005
3.87434
3.87642
3.87613
3.87333
3.86784
3.8595
3.84816
3.83375
3.81615
3.79536
3.77135
3.74416
3.71386
3.68055
3.64437
3.6055
3.56413
3.52049
3.47478
3.42723
3.37806
3.32755
3.27596
3.22357
3.17064
3.11744
3.06418
3.01109
2.95837
2.90619
2.85472
2.80411
2.75448
2.70595
2.65862
2.61258
2.56789
2.52463
2.48285
2.4426
2.40393
2.36689
2.33152
2.29786
2.26594
2.23577
2.20729
2.18028
2.15495
0.0564152
0.100335
0.126759
0.146097
0.162345
0.177032
0.190905
0.20439
0.217746
0.231137
0.244666
0.258394
0.272356
0.286568
0.301038
0.315768
0.330757
0.346003
0.361506
0.377266
0.393286
0.409569
0.426119
0.442942
0.460047
0.477441
0.495134
0.513137
0.531462
0.550121
0.56913
0.588504
0.608257
0.628408
0.648974
0.669975
0.69143
0.713359
0.735783
0.758724
0.782203
0.806243
0.830865
0.856092
0.881944
0.908445
0.935614
0.963471
0.992038
1.02133
1.05137
1.08217
1.11375
1.14612
1.1793
1.21329
1.2481
1.28375
1.32023
1.35756
1.39573
1.43474
1.47459
1.51527
1.55677
1.59908
1.64219
1.68608
1.73073
1.77612
1.82222
1.86899
1.91642
1.96446
2.01307
2.06222
2.11186
2.16194
2.21243
2.26328
2.31443
2.36584
2.41745
2.46922
2.52109
2.57301
2.62493
2.6768
2.72855
2.78014
2.8315
2.88258
2.93331
2.98362
3.03344
3.0827
3.13133
3.17926
3.22622
3.27218
3.31713
3.36101
3.40382
3.44552
3.48609
3.52551
3.56376
3.60083
3.6367
3.67136
3.70479
3.737
3.76798
3.79772
3.82622
3.85346
3.87946
3.90421
3.92771
3.94996
3.97095
3.99067
4.0091
4.02621
4.04197
4.05633
4.06925
4.08065
4.09045
4.09855
4.10484
4.10919
4.11145
4.11146
4.10904
4.10406
4.09634
4.08573
4.07213
4.05542
4.03554
4.01244
3.98612
3.95661
3.92397
3.88831
3.84978
3.80853
3.76477
3.7187
3.67054
3.62053
3.56895
3.51608
3.46221
3.40762
3.35258
3.29735
3.24215
3.1872
3.13271
3.07885
3.02578
2.97365
2.92258
2.87269
2.82406
2.7768
2.73096
2.68662
2.64384
2.60268
2.56319
2.52543
2.48946
2.45531
2.42303
2.39255
2.36372
2.33642
0.061497
0.106994
0.134992
0.155516
0.17274
0.188263
0.202862
0.216978
0.230884
0.244758
0.258714
0.272829
0.287151
0.301707
0.316516
0.331587
0.346925
0.362533
0.378415
0.394572
0.411008
0.427727
0.444736
0.462039
0.479646
0.497565
0.515805
0.534378
0.553295
0.572571
0.59222
0.612257
0.6327
0.653565
0.674873
0.696643
0.718896
0.741654
0.764941
0.788778
0.813191
0.838203
0.863839
0.890124
0.917083
0.944741
0.973121
1.00225
1.03214
1.06283
1.09433
1.12667
1.15985
1.19391
1.22885
1.2647
1.30145
1.33914
1.37775
1.4173
1.45779
1.49923
1.54161
1.58492
1.62917
1.67433
1.7204
1.76735
1.81517
1.86383
1.9133
1.96355
2.01454
2.06624
2.1186
2.17158
2.22513
2.27919
2.33372
2.38865
2.44394
2.49952
2.55534
2.61133
2.66743
2.7236
2.77975
2.83584
2.89179
2.94754
3.00303
3.05817
3.1129
3.16713
3.22078
3.27376
3.32599
3.37728
3.42743
3.47641
3.52417
3.57069
3.61593
3.65985
3.70244
3.74365
3.78348
3.8219
3.8589
3.89447
3.9286
3.96129
3.99254
4.02235
4.05072
4.07766
4.10319
4.12732
4.15007
4.17146
4.1915
4.21022
4.22761
4.24366
4.25838
4.27175
4.28377
4.29438
4.3035
4.31107
4.31702
4.3212
4.32349
4.32375
4.3218
4.3175
4.31068
4.30118
4.28886
4.27356
4.25518
4.23364
4.20889
4.18089
4.14969
4.11534
4.07793
4.03762
3.99455
3.94893
3.90097
3.85092
3.79904
3.74562
3.69098
3.63539
3.57915
3.52253
3.46577
3.40911
3.35278
3.29696
3.24183
3.18755
3.13426
3.08209
3.03114
2.9815
2.93327
2.88653
2.84133
2.79776
2.75587
2.71574
2.67743
2.641
2.60647
2.57381
2.54286
2.51344
0.065788
0.112262
0.141501
0.162975
0.180981
0.197175
0.212358
0.226982
0.241329
0.255582
0.269869
0.284273
0.298853
0.313648
0.328682
0.343973
0.359533
0.375369
0.391488
0.407896
0.424598
0.441601
0.45891
0.476534
0.494481
0.512759
0.531381
0.550357
0.5697
0.589425
0.609546
0.63008
0.651044
0.672458
0.694342
0.716717
0.739605
0.763032
0.787021
0.811597
0.836788
0.86262
0.889121
0.916318
0.944239
0.972912
1.00237
1.03263
1.06372
1.09568
1.12852
1.16227
1.19695
1.23258
1.26919
1.30679
1.3454
1.38503
1.42569
1.46739
1.51014
1.55394
1.59879
1.64469
1.69163
1.7396
1.78859
1.83858
1.88955
1.94147
1.99431
2.04803
2.10261
2.15798
2.21411
2.27095
2.32843
2.3865
2.4451
2.50417
2.56363
2.62342
2.68348
2.74374
2.80412
2.86455
2.92497
2.9853
3.04547
3.10539
3.165
3.22421
3.28293
3.34106
3.39852
3.45518
3.51094
3.56547
3.61869
3.67055
3.72101
3.77002
3.81754
3.86351
3.90792
3.95072
3.9919
4.03143
4.0693
4.10549
4.14001
4.17285
4.20401
4.23351
4.26135
4.28755
4.31215
4.33517
4.35666
4.37667
4.39523
4.41239
4.42817
4.4426
4.45571
4.46753
4.4781
4.48739
4.49535
4.50197
4.50717
4.51088
4.51299
4.51337
4.51187
4.50833
4.50258
4.49444
4.48372
4.47025
4.45387
4.43445
4.41188
4.38609
4.35704
4.32474
4.28925
4.25065
4.20909
4.16473
4.11778
4.06846
4.01705
3.96385
3.90914
3.85325
3.79645
3.73905
3.6813
3.62347
3.56578
3.50845
3.45167
3.39561
3.34044
3.28628
3.23325
3.18148
3.13104
3.08204
3.03455
2.98865
2.94441
2.90192
2.86125
2.82246
2.78557
2.75056
2.71726
2.68559
0.0693038
0.11623
0.146409
0.168613
0.187217
0.203922
0.219546
0.234551
0.249223
0.263752
0.278269
0.292866
0.307607
0.32254
0.337697
0.3531
0.368768
0.384714
0.400947
0.417476
0.434311
0.451459
0.468929
0.48673
0.504872
0.523365
0.542221
0.561452
0.581073
0.601099
0.621545
0.64243
0.663772
0.685593
0.707913
0.730755
0.754146
0.778109
0.802673
0.827865
0.853714
0.88025
0.907503
0.935504
0.964285
0.993877
1.02431
1.05562
1.08783
1.12098
1.15508
1.19018
1.2263
1.26346
1.30169
1.341
1.38142
1.42296
1.46564
1.50947
1.55445
1.6006
1.64792
1.6964
1.74604
1.79683
1.84875
1.90179
1.95593
2.01113
2.06736
2.12459
2.18277
2.24186
2.3018
2.36252
2.42398
2.48609
2.54879
2.61201
2.67568
2.73971
2.80402
2.86855
2.9332
2.9979
3.06256
3.12711
3.19145
3.2555
3.31918
3.38237
3.445
3.50693
3.56808
3.6283
3.68731
3.74491
3.80102
3.85557
3.90852
3.95981
4.00937
4.05716
4.10315
4.14728
4.18954
4.22988
4.26831
4.3048
4.33935
4.37198
4.40268
4.43147
4.45834
4.48335
4.50654
4.52796
4.54767
4.56574
4.58225
4.59728
4.61086
4.62305
4.63395
4.64363
4.65214
4.65951
4.66578
4.67094
4.67498
4.67784
4.67947
4.67975
4.67854
4.67571
4.67106
4.66439
4.65549
4.64416
4.63017
4.61335
4.59351
4.57053
4.5443
4.51478
4.48195
4.44586
4.40661
4.36432
4.31919
4.27142
4.22127
4.16904
4.11501
4.05951
4.00284
3.9453
3.88717
3.82871
3.77019
3.71183
3.65384
3.59641
3.53971
3.48389
3.42908
3.37541
3.32298
3.2719
3.22225
3.17412
3.1276
3.08278
3.03973
2.99852
2.95919
2.92168
2.88584
2.85164
0.0720685
0.118993
0.149831
0.172562
0.191593
0.208655
0.224582
0.239841
0.254721
0.269416
0.284062
0.298753
0.313561
0.328537
0.343718
0.359134
0.374807
0.390754
0.40699
0.423526
0.440376
0.457548
0.475055
0.492908
0.511117
0.529697
0.548659
0.568019
0.587791
0.607993
0.628642
0.649758
0.671361
0.693474
0.716121
0.739327
0.763119
0.787525
0.812574
0.838298
0.864727
0.891896
0.919838
0.948586
0.978176
1.00864
1.04002
1.07235
1.10565
1.13997
1.17534
1.21179
1.24935
1.28805
1.32791
1.36896
1.41122
1.45471
1.49945
1.54545
1.59272
1.64127
1.69111
1.74223
1.79462
1.84829
1.9032
1.95935
2.01671
2.07524
2.13492
2.1957
2.25754
2.32038
2.38416
2.44881
2.51426
2.58043
2.64724
2.71462
2.78247
2.85071
2.91924
2.98799
3.05684
3.12572
3.19453
3.26318
3.33156
3.39958
3.46714
3.53414
3.60045
3.66596
3.73054
3.79394
3.85587
3.91623
3.97491
4.03185
4.08696
4.14019
4.19147
4.24074
4.28796
4.33308
4.37605
4.41685
4.45546
4.49186
4.52605
4.55804
4.58786
4.61549
4.64094
4.66427
4.68556
4.70486
4.72226
4.73785
4.75174
4.76402
4.77479
4.78415
4.79224
4.79916
4.80503
4.80993
4.81393
4.8171
4.81947
4.82104
4.82178
4.82162
4.82045
4.81814
4.81449
4.8093
4.80232
4.79331
4.78201
4.76817
4.75154
4.73192
4.70914
4.68307
4.65364
4.62084
4.58469
4.5453
4.50281
4.45741
4.40934
4.35887
4.3063
4.25194
4.1961
4.1391
4.08122
4.02275
3.96396
3.90509
3.84637
3.78801
3.73018
3.67306
3.61679
3.56151
3.50734
3.45438
3.40274
3.35252
3.30381
3.25671
3.21131
3.16766
3.12581
3.08571
3.04719
3.01028
0.0741154
0.120641
0.151882
0.174952
0.194249
0.211524
0.227619
0.243006
0.257978
0.272731
0.287402
0.302091
0.31687
0.331796
0.34691
0.362246
0.377829
0.393681
0.40982
0.426263
0.443023
0.460116
0.477554
0.495351
0.513523
0.532083
0.551047
0.570433
0.590257
0.61054
0.6313
0.65256
0.674342
0.696673
0.719577
0.743084
0.767223
0.792024
0.817521
0.843748
0.870739
0.89853
0.92716
0.956664
0.987082
1.01845
1.05081
1.08421
1.11867
1.15423
1.19094
1.22883
1.26793
1.30827
1.34988
1.39278
1.437
1.48257
1.5295
1.5778
1.62749
1.67857
1.73106
1.78494
1.84021
1.89687
1.95488
2.01424
2.07492
2.13687
2.20007
2.26446
2.33
2.39664
2.46429
2.53289
2.60233
2.67253
2.74341
2.81487
2.88683
2.95917
3.03179
3.1046
3.17749
3.25035
3.32307
3.39556
3.46769
3.53937
3.61048
3.6809
3.75051
3.81916
3.88665
3.95262
4.01698
4.07964
4.14041
4.19923
4.25603
4.31072
4.36324
4.41352
4.4615
4.50712
4.55034
4.59112
4.62944
4.66527
4.69861
4.72947
4.75787
4.78382
4.80735
4.82852
4.84741
4.86409
4.87867
4.89126
4.90199
4.911
4.91842
4.9244
4.9291
4.93269
4.93533
4.93717
4.93835
4.93897
4.93913
4.9389
4.93828
4.93727
4.93578
4.93369
4.93085
4.92702
4.92195
4.91536
4.90694
4.89638
4.88336
4.86759
4.84883
4.82687
4.80155
4.77279
4.74055
4.70488
4.66587
4.62368
4.57853
4.53065
4.48034
4.42791
4.37366
4.31791
4.26097
4.20313
4.14468
4.08587
4.02695
3.96814
3.90964
3.85163
3.79426
3.7377
3.68207
3.62749
3.57407
3.52193
3.47117
3.42189
3.37419
3.32813
3.28375
3.24101
3.19974
3.16003
0.0754903
0.121267
0.152673
0.175906
0.195319
0.212669
0.228804
0.244199
0.259151
0.273855
0.288452
0.303043
0.317703
0.33249
0.347451
0.362621
0.37803
0.393703
0.409662
0.425926
0.442513
0.459441
0.476726
0.494387
0.512441
0.530905
0.549799
0.569144
0.588959
0.609267
0.63009
0.651455
0.673386
0.695912
0.719063
0.742871
0.767369
0.79259
0.818573
0.845353
0.87297
0.901464
0.930874
0.961243
0.992612
1.02502
1.05852
1.09314
1.12893
1.16593
1.20418
1.24372
1.28459
1.32681
1.3704
1.4154
1.46183
1.50972
1.55908
1.60993
1.66227
1.71612
1.77148
1.82834
1.88669
1.94652
2.00781
2.07053
2.13464
2.20012
2.26692
2.33498
2.40426
2.47469
2.54622
2.61873
2.69208
2.7662
2.841
2.91637
2.99222
3.06841
3.14485
3.22141
3.29797
3.37441
3.45063
3.52649
3.60187
3.67666
3.75073
3.82396
3.8962
3.96721
4.03667
4.10448
4.17052
4.23468
4.29681
4.35683
4.41463
4.47013
4.52324
4.57389
4.62201
4.66752
4.71039
4.75056
4.78801
4.8227
4.85464
4.88384
4.9103
4.93407
4.95517
4.97367
4.98966
5.00322
5.01448
5.02358
5.03066
5.03589
5.03945
5.04153
5.04233
5.04206
5.04095
5.03919
5.03698
5.0345
5.03192
5.02936
5.02689
5.02456
5.02233
5.02013
5.0178
5.01514
5.01189
5.00772
5.0023
4.99523
4.98614
4.97467
4.96046
4.94322
4.9227
4.89873
4.8712
4.84007
4.8054
4.76729
4.72591
4.68148
4.63428
4.58459
4.53272
4.479
4.42373
4.36722
4.30976
4.25163
4.19309
4.13438
4.0757
4.01725
3.95921
3.90175
3.84499
3.78909
3.73416
3.68033
3.6277
3.57639
3.52649
3.47809
3.43122
3.38585
3.34181
3.29928
0.0762577
0.120971
0.152315
0.175544
0.194932
0.212229
0.228284
0.243576
0.2584
0.272957
0.287386
0.30179
0.316247
0.330817
0.345549
0.360481
0.375646
0.391073
0.406786
0.42281
0.439165
0.455873
0.472956
0.490434
0.50833
0.526667
0.545467
0.564756
0.584558
0.604901
0.625811
0.647315
0.669444
0.692231
0.715711
0.739919
0.764894
0.790674
0.8173
0.844813
0.873256
0.902672
0.933105
0.964601
0.997203
1.03096
1.06591
1.1021
1.13957
1.17838
1.21855
1.26015
1.30322
1.34773
1.39373
1.44125
1.4903
1.54092
1.59312
1.6469
1.70227
1.75924
1.8178
1.87794
1.93964
2.00289
2.06766
2.13391
2.2016
2.2707
2.34114
2.41286
2.48581
2.55991
2.63508
2.71121
2.7882
2.86592
2.94429
3.02317
3.10246
3.18202
3.26172
3.34144
3.42105
3.5004
3.57937
3.65782
3.73562
3.81265
3.88875
3.96381
4.03753
4.10968
4.18016
4.24886
4.31565
4.3804
4.44299
4.50331
4.56124
4.61669
4.66956
4.71976
4.76722
4.81186
4.85363
4.89247
4.92835
4.96124
4.99114
5.01805
5.04199
5.06299
5.08111
5.09641
5.10897
5.11892
5.12638
5.13151
5.13449
5.1355
5.13476
5.13249
5.12894
5.12436
5.11902
5.1132
5.10713
5.10108
5.09527
5.08989
5.0851
5.08099
5.0776
5.0749
5.07278
5.07105
5.06945
5.06765
5.06526
5.06186
5.05698
5.05018
5.041
5.02906
5.014
4.99556
4.97352
4.94779
4.91832
4.88517
4.84846
4.80837
4.76515
4.71907
4.67043
4.61954
4.56672
4.51228
4.45654
4.39976
4.34223
4.2842
4.2259
4.16753
4.10929
4.05135
3.99387
3.937
3.88087
3.82562
3.77136
3.71822
3.6663
3.61569
3.56642
3.5185
3.47176
3.42643
0.076515
0.119865
0.150929
0.173996
0.193225
0.210349
0.226215
0.2413
0.255903
0.270223
0.284402
0.298544
0.312729
0.327018
0.341463
0.356105
0.370983
0.386127
0.401565
0.417325
0.433432
0.449915
0.466798
0.48411
0.501877
0.520129
0.538893
0.558203
0.57809
0.598591
0.619733
0.641543
0.664061
0.687326
0.71138
0.736264
0.762021
0.788696
0.816334
0.84498
0.874683
0.905487
0.93744
0.970589
1.00498
1.04066
1.07767
1.11605
1.15585
1.19711
1.23986
1.28415
1.33
1.37743
1.42646
1.47711
1.52938
1.5833
1.63887
1.69609
1.75495
1.81546
1.87759
1.94133
2.00665
2.07352
2.1419
2.21175
2.28303
2.35568
2.42963
2.50482
2.58118
2.65861
2.73704
2.81634
2.89642
2.97714
3.0584
3.14007
3.22201
3.30408
3.38614
3.46806
3.54967
3.63084
3.71141
3.79125
3.8702
3.94816
4.0249
4.10015
4.17385
4.2459
4.31617
4.38453
4.45087
4.51505
4.57695
4.63644
4.6934
4.74772
4.79931
4.84807
4.8939
4.93674
4.97651
5.01316
5.04666
5.07697
5.10408
5.128
5.14875
5.16636
5.1809
5.19243
5.20106
5.2069
5.2101
5.21084
5.2093
5.20571
5.2003
5.19332
5.18507
5.17584
5.16594
5.15569
5.14541
5.13542
5.126
5.11742
5.10992
5.10365
5.09874
5.0952
5.09298
5.09194
5.09183
5.09231
5.09298
5.09335
5.09291
5.09112
5.08743
5.08134
5.07238
5.06019
5.04444
5.02493
5.00155
4.97426
4.94314
4.90832
4.87
4.82843
4.78389
4.7367
4.68716
4.6356
4.58232
4.52762
4.47179
4.4151
4.35778
4.30006
4.24214
4.18422
4.12647
4.06904
4.01208
3.95575
3.90016
3.84545
3.79174
3.73911
3.68761
3.63728
3.58795
3.53993
0.0764135
0.118097
0.148668
0.171416
0.19036
0.207202
0.222781
0.237573
0.251875
0.26589
0.279758
0.293588
0.307459
0.321435
0.33557
0.349911
0.364503
0.37939
0.394592
0.410139
0.426068
0.442412
0.459207
0.476487
0.494287
0.512644
0.531594
0.551177
0.571433
0.592401
0.614122
0.636637
0.65999
0.684228
0.709398
0.735548
0.762729
0.790989
0.820377
0.850944
0.882737
0.915804
0.950191
0.985943
1.0231
1.06171
1.1018
1.14341
1.18657
1.23132
1.27768
1.32567
1.37531
1.42661
1.47957
1.5342
1.59049
1.64844
1.70803
1.76927
1.83212
1.89656
1.96258
2.03013
2.09918
2.16968
2.24159
2.31485
2.38941
2.46521
2.54218
2.62023
2.69929
2.77927
2.86007
2.94158
3.02369
3.10628
3.18922