/*--------------------------------*- C++ -*----------------------------------*\
| =========                 |                                                 |
| \\      /  F ield         | OpenFOAM: The Open Source CFD Toolbox           |
|  \\    /   O peration     | Version:  2.2.x                                 |
|   \\  /    A nd           | Web:      www.OpenFOAM.org                      |
|    \\/     M anipulation  |                                                 |
\*---------------------------------------------------------------------------*/
FoamFile
{
    version     2.0;
    format      ascii;
    class       volScalarField;
    location    "550";
    object      nut;
}
// * * * * * * * * * * * * * * * * * * * * * * * * * * * * * * * * * * * * * //

dimensions      [0 2 -1 0 0 0 0];

internalField   nonuniform List<scalar> 
12225
(
3.09428e-05
3.71944e-05
4.0947e-05
4.3145e-05
4.43825e-05
4.5024e-05
4.52964e-05
4.5342e-05
4.52506e-05
4.50787e-05
4.4862e-05
4.46226e-05
4.43748e-05
4.41271e-05
4.38848e-05
4.36509e-05
4.34235e-05
4.32228e-05
0.000116613
6.93681e-05
5.16051e-05
4.24148e-05
3.71539e-05
3.39211e-05
3.1829e-05
3.04302e-05
2.94808e-05
2.88383e-05
2.84146e-05
2.81524e-05
2.8013e-05
2.79691e-05
2.80007e-05
2.8092e-05
2.82289e-05
2.83717e-05
0.000365113
0.000223242
0.000162458
0.000127915
0.00010604
9.12454e-05
8.07044e-05
7.28797e-05
6.68819e-05
6.21663e-05
5.83829e-05
5.52976e-05
5.27486e-05
5.06204e-05
4.88267e-05
4.72971e-05
4.59615e-05
4.47933e-05
0.000644611
0.000479078
0.000378701
0.00031345
0.000268355
0.000235791
0.0002114
0.000192566
0.000177652
0.000165592
0.000155663
0.000147363
0.000140334
0.000134312
0.000129099
0.00012454
0.000120515
0.000117014
0.000789269
0.000696799
0.000611917
0.000542052
0.000486079
0.000441345
0.000405308
0.00037593
0.000351682
0.000331427
0.000314318
0.00029972
0.000287149
0.000276236
0.00026669
0.000258286
0.000250855
0.00024437
0.000836146
0.000802043
0.000758903
0.000713888
0.000670966
0.000631883
0.000597103
0.000566469
0.000539584
0.000515989
0.000495238
0.000476932
0.000460726
0.000446325
0.000433483
0.000421996
0.000411706
0.000402601
0.000848366
0.000838516
0.000822834
0.000802886
0.000780486
0.00075716
0.000733992
0.000711657
0.000690534
0.000670801
0.00065251
0.000635638
0.000620119
0.000605869
0.000592794
0.000580806
0.000569829
0.000559916
0.000850836
0.000847527
0.000841611
0.000833096
0.000822396
0.000810104
0.000796811
0.000783028
0.00076915
0.000755466
0.000742176
0.00072941
0.000717245
0.000705722
0.000694856
0.000684648
0.000675095
0.000666318
0.000851475
0.000850225
0.000848
0.000844577
0.000839912
0.000834108
0.000827353
0.000819872
0.000811885
0.000803591
0.000795158
0.000786722
0.000778389
0.000770238
0.000762328
0.000754702
0.000747397
0.000740545
0.000851641
0.00085103
0.00085015
0.000848867
0.000847085
0.000844764
0.000841908
0.000838559
0.000834782
0.000830654
0.000826255
0.000821662
0.000816944
0.000812161
0.000807368
0.000802609
0.000797926
0.000793428
0.000851672
0.000851219
0.000850723
0.000850137
0.000849415
0.000848519
0.000847423
0.000846116
0.000844599
0.000842882
0.000840984
0.000838928
0.000836739
0.000834445
0.000832071
0.000829641
0.000827184
0.000824765
0.000851674
0.000851249
0.000850836
0.000850423
0.000849995
0.000849538
0.000849038
0.000848484
0.000847867
0.000847183
0.00084643
0.00084561
0.000844726
0.000843784
0.00084279
0.000841752
0.000840682
0.00083961
0.000851671
0.000851248
0.000850846
0.000850464
0.000850095
0.000849738
0.000849385
0.000849034
0.000848679
0.000848318
0.000847946
0.000847563
0.000847167
0.000846757
0.000846333
0.000845897
0.00084545
0.00084501
0.000851668
0.000851243
0.000850841
0.00085046
0.000850099
0.000849756
0.000849428
0.000849115
0.000848814
0.000848524
0.000848242
0.000847969
0.000847702
0.00084744
0.000847182
0.000846929
0.000846681
0.00084645
0.000851666
0.000851239
0.000850835
0.000850453
0.00085009
0.000849747
0.000849421
0.000849111
0.000848816
0.000848535
0.000848267
0.000848011
0.000847766
0.000847532
0.000847307
0.000847091
0.000846886
0.000846701
0.000851665
0.000851236
0.000850831
0.000850447
0.000850083
0.000849737
0.00084941
0.000849098
0.000848802
0.000848521
0.000848252
0.000847997
0.000847753
0.00084752
0.000847298
0.000847086
0.000846885
0.000846707
0.000851664
0.000851235
0.000850828
0.000850443
0.000850078
0.000849731
0.000849402
0.000849089
0.000848792
0.000848508
0.000848239
0.000847981
0.000847736
0.000847502
0.000847278
0.000847065
0.000846864
0.000846684
0.000851664
0.000851234
0.000850827
0.000850442
0.000850076
0.000849728
0.000849398
0.000849085
0.000848786
0.000848502
0.000848231
0.000847973
0.000847726
0.000847491
0.000847266
0.000847052
0.000846849
0.000846669
0.000851664
0.000851235
0.000850828
0.000850442
0.000850076
0.000849729
0.000849399
0.000849085
0.000848786
0.000848501
0.00084823
0.00084797
0.000847723
0.000847486
0.00084726
0.000847044
0.00084684
0.000846657
0.000851665
0.000851236
0.00085083
0.000850444
0.000850079
0.000849731
0.000849401
0.000849086
0.000848785
0.000848498
0.000848222
0.000847958
0.000847703
0.000847459
0.000847222
0.000846994
0.000846776
0.000846579
0.000851666
0.000851238
0.000850832
0.000850446
0.000850078
0.000849725
0.000849384
0.000849054
0.000848731
0.000848414
0.0008481
0.000847787
0.000847475
0.000847163
0.000846849
0.000846534
0.000846219
0.000845916
0.000851667
0.000851237
0.000850823
0.000850417
0.00085001
0.000849592
0.000849154
0.000848688
0.000848188
0.00084765
0.000847072
0.000846452
0.000845791
0.000845091
0.000844355
0.000843586
0.00084279
0.000841987
0.000851661
0.000851195
0.000850681
0.000850075
0.000849336
0.00084843
0.000847338
0.00084605
0.000844567
0.000842898
0.000841059
0.00083907
0.000836952
0.000834726
0.000832416
0.000830041
0.000827624
0.00082521
0.00085157
0.000850737
0.000849405
0.000847416
0.000844691
0.000841228
0.00083708
0.000832339
0.000827112
0.000821509
0.000815636
0.000809587
0.000803445
0.000797278
0.000791144
0.000785086
0.000779146
0.000773396
0.000850707
0.000847137
0.000840905
0.000832091
0.000821119
0.00080856
0.000794979
0.000780862
0.000766593
0.000752457
0.000738656
0.000725325
0.000712549
0.000700375
0.000688824
0.000677898
0.00066759
0.000657939
0.000844113
0.000825223
0.000798529
0.00076773
0.000735647
0.00070413
0.000674219
0.0006464
0.00062083
0.000597485
0.000576247
0.000556955
0.000539434
0.000523511
0.000509025
0.000495826
0.000483784
0.000472827
0.000803425
0.000727157
0.000652718
0.000587764
0.000532941
0.000487157
0.0004489
0.000416755
0.000389549
0.000366351
0.000346422
0.000329181
0.000314166
0.000301008
0.000289414
0.000279146
0.000270012
0.000261878
0.000625871
0.000466124
0.000370235
0.00030633
0.000260961
0.000227479
0.000201982
0.000182056
0.000166152
0.000153234
0.000142584
0.000133691
0.000126182
0.000119781
0.000114276
0.00010951
0.00010536
0.00010175
0.000254186
0.000158464
0.000118168
9.48472e-05
7.98515e-05
6.96487e-05
6.24032e-05
5.70862e-05
5.30847e-05
5.00125e-05
4.76156e-05
4.5721e-05
4.42077e-05
4.29887e-05
4.20007e-05
4.11963e-05
4.05402e-05
4.0012e-05
3.69327e-05
4.20256e-05
4.57632e-05
4.86729e-05
5.10793e-05
5.30433e-05
5.46249e-05
5.58813e-05
5.68652e-05
5.7623e-05
5.81953e-05
5.86162e-05
5.89146e-05
5.91143e-05
5.92351e-05
5.9293e-05
5.93015e-05
5.92703e-05
4.84585e-06
1.31912e-05
1.48349e-05
1.61074e-05
1.73144e-05
1.84665e-05
1.97639e-05
2.1088e-05
2.24303e-05
2.37677e-05
2.508e-05
2.63571e-05
2.75956e-05
2.87955e-05
2.99579e-05
3.10848e-05
3.21784e-05
3.32411e-05
3.42751e-05
3.52829e-05
3.62665e-05
3.72284e-05
3.81706e-05
3.90953e-05
4.00047e-05
4.09009e-05
4.17863e-05
4.26632e-05
4.35342e-05
4.44021e-05
4.52703e-05
4.61427e-05
4.70239e-05
4.79243e-05
4.88257e-05
4.97276e-05
5.06309e-05
5.15361e-05
5.2444e-05
5.3355e-05
5.42695e-05
5.51879e-05
5.61105e-05
5.70375e-05
5.79691e-05
5.89052e-05
5.9846e-05
6.07914e-05
6.17413e-05
6.26957e-05
6.36544e-05
6.46172e-05
6.55838e-05
6.6554e-05
6.75274e-05
6.85038e-05
6.94828e-05
7.0464e-05
7.1447e-05
7.24315e-05
7.34168e-05
7.44027e-05
7.53885e-05
7.63739e-05
7.73582e-05
7.83411e-05
7.9322e-05
8.03004e-05
8.12757e-05
8.22475e-05
8.32151e-05
8.41781e-05
8.51358e-05
8.60878e-05
8.70335e-05
8.79724e-05
8.89039e-05
8.98275e-05
9.07427e-05
9.16488e-05
9.25453e-05
9.34318e-05
9.43075e-05
9.51719e-05
9.60245e-05
9.68646e-05
9.76918e-05
9.85053e-05
9.93046e-05
0.000100089
0.000100858
0.000101612
0.000102349
0.00010307
0.000103774
0.000104461
0.000105132
0.000105786
0.000106427
0.000107055
0.000107674
0.000108287
0.000108879
0.000109451
0.000110002
0.000110533
0.000111042
0.000111531
0.000111999
0.000112445
0.000112869
0.00011327
0.000113649
0.000114004
0.000114335
0.000114641
0.000114921
0.000115175
0.000115402
0.0001156
0.000115769
0.000115908
0.000116015
0.000116089
0.000116128
0.000116132
0.000116098
0.000116025
0.000115912
0.000115756
0.000115556
0.000115311
0.000115018
0.000114675
0.000114283
0.000113838
0.000113339
0.000112786
0.000112177
0.000111512
0.00011079
0.000110013
0.000109178
0.000108289
0.000107346
0.000106349
0.000105305
0.000104204
0.0001031
0.000101974
0.000101136
0.000100344
9.95337e-05
9.87004e-05
9.78452e-05
9.69704e-05
9.60789e-05
9.51739e-05
9.42586e-05
9.33358e-05
9.24085e-05
9.14798e-05
9.05518e-05
8.96275e-05
8.87091e-05
8.77988e-05
8.68987e-05
8.60106e-05
8.51361e-05
8.42765e-05
8.34327e-05
8.26055e-05
8.17948e-05
8.09991e-05
8.02147e-05
7.94324e-05
7.86339e-05
7.77744e-05
7.6865e-05
7.55993e-05
7.19854e-06
4.10122e-05
7.76893e-05
0.000100902
0.000113821
0.000121449
0.000126732
0.000131401
0.000136162
0.00014123
0.000146635
0.000152342
0.000158301
0.000164463
0.000170784
0.000177228
0.000183759
0.000190352
0.00019698
0.000203623
0.000210263
0.000216886
0.000223478
0.000230031
0.000236535
0.000242984
0.000249373
0.000255697
0.000261955
0.000268144
0.000274263
0.000280317
0.000286313
0.000292268
0.000298208
0.00030415
0.000310107
0.00031609
0.000322109
0.000328173
0.000334291
0.000340469
0.000346717
0.000353039
0.000359443
0.000365932
0.000372512
0.000379187
0.000385961
0.000392835
0.000399814
0.000406899
0.00041409
0.00042139
0.000428798
0.000436314
0.000443938
0.000451668
0.000459505
0.000467445
0.000475488
0.00048363
0.000491869
0.000500203
0.000508628
0.00051714
0.000525737
0.000534415
0.00054317
0.000551999
0.000560897
0.000569861
0.000578887
0.000587971
0.000597109
0.000606299
0.000615536
0.000624818
0.00063414
0.0006435
0.000652895
0.000662321
0.000671775
0.000681253
0.000690751
0.000700266
0.000709793
0.000719326
0.00072886
0.000738387
0.000747901
0.000757392
0.00076685
0.000776265
0.000785623
0.000794908
0.000804103
0.000813185
0.000822128
0.000830897
0.000839381
0.000847357
0.000855204
0.000862973
0.000870673
0.000878308
0.00088588
0.000893391
0.000900844
0.000908238
0.000915574
0.000922851
0.000930067
0.00093722
0.000944307
0.000951322
0.00095826
0.000965114
0.000971876
0.000978536
0.000985081
0.000991498
0.000997771
0.00100388
0.00100981
0.00101554
0.00102104
0.00102629
0.00103126
0.00103591
0.00104023
0.00104417
0.00104771
0.0010508
0.00105342
0.00105553
0.0010571
0.0010581
0.00105849
0.00105827
0.0010574
0.00105588
0.00105369
0.00105084
0.00104732
0.00104314
0.00103834
0.00103274
0.00102607
0.00101721
0.00100607
0.000994045
0.000981586
0.00096886
0.000955958
0.000942947
0.000929882
0.000916812
0.000903782
0.000890836
0.000878012
0.000865346
0.000852871
0.000840616
0.000828606
0.000816865
0.000805411
0.000794263
0.000783436
0.00077294
0.000762785
0.000752974
0.0007435
0.000734351
0.00072549
0.000716839
0.000708181
0.000698212
0.000684219
0.000658236
8.79782e-06
6.5252e-05
0.000125343
0.000168135
0.000197169
0.000217266
0.000232208
0.000244582
0.000255941
0.000267108
0.000278464
0.000290145
0.00030217
0.000314503
0.00032709
0.000339871
0.00035279
0.000365794
0.000378838
0.000391882
0.000404892
0.000417842
0.000430709
0.000443478
0.000456136
0.000468676
0.000481095
0.000493395
0.00050558
0.000517658
0.000529644
0.000541554
0.000553408
0.000565231
0.000577049
0.000588884
0.00060076
0.000612697
0.000624713
0.000636827
0.000649057
0.000661418
0.000673925
0.000686593
0.000699432
0.000712456
0.000725673
0.000739093
0.000752724
0.000766572
0.000780642
0.000794939
0.000809466
0.000824225
0.000839217
0.000854442
0.000869899
0.000885587
0.000901502
0.000917641
0.000934
0.000950574
0.000967357
0.000984342
0.00100152
0.00101889
0.00103644
0.00105416
0.00107204
0.00109008
0.00110826
0.00112657
0.00114501
0.00116356
0.00118222
0.00120097
0.00121981
0.00123872
0.0012577
0.00127673
0.0012958
0.00131491
0.00133405
0.0013532
0.00137235
0.00139149
0.0014106
0.00142968
0.00144871
0.00146767
0.00148654
0.00150531
0.00152395
0.00154243
0.00156074
0.00157885
0.00159672
0.00161433
0.00163165
0.00164866
0.00166496
0.00168085
0.0016965
0.00171195
0.00172722
0.00174233
0.00175727
0.00177205
0.00178669
0.00180118
0.00181552
0.00182972
0.00184377
0.00185768
0.00187144
0.00188505
0.00189849
0.00191177
0.00192486
0.00193775
0.00195042
0.00196286
0.00197502
0.00198689
0.00199842
0.00200958
0.00202031
0.00203058
0.00204032
0.00204948
0.00205799
0.00206578
0.00207278
0.00207893
0.00208415
0.00208836
0.0020915
0.00209349
0.00209429
0.00209383
0.00209207
0.00208899
0.00208456
0.00207879
0.00207171
0.00206333
0.00205364
0.00204251
0.00202949
0.0020139
0.00199567
0.00197585
0.001955
0.00193344
0.00191134
0.00188884
0.00186606
0.0018431
0.00182006
0.00179702
0.00177406
0.00175126
0.00172868
0.00170639
0.00168443
0.00166287
0.00164174
0.00162107
0.00160091
0.00158128
0.00156219
0.00154365
0.00152565
0.00150817
0.00149112
0.00147432
0.00145729
0.00143816
0.00141327
0.00137511
9.98581e-06
8.31288e-05
0.000162336
0.000222855
0.000267212
0.00030012
0.000325604
0.000346667
0.000365363
0.000382978
0.000400249
0.000417558
0.000435068
0.000452824
0.000470808
0.000488973
0.000507263
0.00052562
0.000543991
0.000562328
0.000580593
0.000598753
0.000616783
0.000634667
0.000652393
0.000669958
0.000687362
0.000704614
0.000721724
0.000738711
0.000755594
0.000772397
0.000789146
0.000805871
0.000822599
0.00083936
0.000856182
0.000873091
0.000890114
0.000907276
0.0009246
0.000942111
0.000959827
0.00097777
0.000995956
0.0010144
0.00103312
0.00105213
0.00107144
0.00109105
0.00111098
0.00113123
0.00115181
0.00117272
0.00119396
0.00121552
0.00123742
0.00125964
0.00128218
0.00130503
0.0013282
0.00135167
0.00137542
0.00139946
0.00142377
0.00144834
0.00147315
0.0014982
0.00152347
0.00154893
0.00157459
0.00160042
0.0016264
0.00165252
0.00167876
0.00170511
0.00173155
0.00175806
0.00178462
0.00181122
0.00183783
0.00186445
0.00189106
0.00191763
0.00194415
0.00197059
0.00199695
0.00202319
0.0020493
0.00207525
0.00210102
0.00212659
0.00215192
0.00217698
0.00220176
0.00222621
0.00225031
0.00227403
0.00229733
0.00232015
0.0023423
0.00236399
0.00238535
0.00240641
0.00242719
0.00244772
0.002468
0.00248803
0.00250784
0.00252743
0.00254681
0.00256598
0.00258495
0.00260372
0.00262229
0.00264066
0.00265883
0.00267678
0.00269452
0.00271202
0.00272927
0.00274625
0.00276291
0.00277923
0.00279516
0.00281066
0.00282566
0.0028401
0.0028539
0.002867
0.00287929
0.00289068
0.00290108
0.00291037
0.00291845
0.00292522
0.00293056
0.00293437
0.00293656
0.00293706
0.00293577
0.00293267
0.00292772
0.00292092
0.00291225
0.00290175
0.00288936
0.00287496
0.00285826
0.00283893
0.00281704
0.00279318
0.00276784
0.00274136
0.00271395
0.00268582
0.00265711
0.00262797
0.00259853
0.00256891
0.00253922
0.00250958
0.00248007
0.00245078
0.0024218
0.00239319
0.00236501
0.00233734
0.0023102
0.00228365
0.00225772
0.00223241
0.00220773
0.00218364
0.00216004
0.00213671
0.00211307
0.00208739
0.0020562
0.00201511
1.12577e-05
9.44191e-05
0.000190723
0.000267947
0.000327017
0.000372492
0.000408554
0.000438477
0.000464643
0.000488681
0.000511634
0.000534126
0.000556498
0.000578914
0.000601431
0.000624047
0.00064673
0.000669435
0.000692114
0.000714723
0.000737222
0.000759581
0.000781774
0.000803787
0.000825609
0.00084724
0.000868684
0.000889951
0.000911059
0.000932026
0.000952878
0.000973642
0.000994349
0.00101503
0.00103571
0.00105644
0.00107723
0.00109813
0.00111916
0.00114035
0.00116174
0.00118335
0.00120521
0.00122733
0.00124975
0.00127249
0.00129555
0.00131896
0.00134273
0.00136688
0.0013914
0.00141632
0.00144163
0.00146734
0.00149345
0.00151996
0.00154686
0.00157416
0.00160185
0.00162991
0.00165835
0.00168714
0.00171628
0.00174576
0.00177555
0.00180565
0.00183604
0.00186669
0.00189759
0.00192872
0.00196006
0.00199158
0.00202326
0.00205508
0.00208702
0.00211906
0.00215116
0.00218331
0.00221548
0.00224764
0.00227978
0.00231187
0.00234388
0.0023758
0.00240759
0.00243923
0.0024707
0.00250197
0.00253302
0.00256382
0.00259434
0.00262456
0.00265444
0.00268396
0.00271308
0.00274178
0.00277004
0.00279782
0.00282513
0.00285172
0.0028777
0.0029032
0.00292828
0.00295299
0.00297734
0.00300135
0.00302505
0.00304845
0.00307156
0.0030944
0.00311698
0.00313932
0.00316143
0.00318331
0.00320498
0.00322645
0.00324771
0.00326878
0.00328964
0.00331029
0.00333072
0.00335091
0.00337084
0.00339046
0.00340974
0.00342862
0.00344705
0.00346496
0.00348225
0.00349884
0.00351462
0.00352947
0.00354327
0.0035559
0.00356721
0.00357705
0.0035853
0.00359181
0.00359644
0.00359911
0.00359968
0.00359812
0.0035943
0.00358822
0.00357985
0.0035692
0.00355621
0.00354081
0.00352285
0.00350221
0.00347899
0.00345356
0.00342631
0.00339753
0.00336747
0.00333635
0.00330435
0.00327164
0.00323838
0.00320471
0.00317078
0.00313671
0.00310262
0.00306862
0.0030348
0.00300127
0.00296809
0.00293535
0.00290311
0.00287141
0.00284031
0.00280983
0.00277999
0.00275075
0.00272203
0.00269359
0.00266491
0.00263461
0.00259981
0.00255843
1.23433e-05
0.000102293
0.000212738
0.000304951
0.000377751
0.000435254
0.000481639
0.000520326
0.000553916
0.000584286
0.000612724
0.000640072
0.000666851
0.00069336
0.000719752
0.000746095
0.000772401
0.000798652
0.000824821
0.000850874
0.00087678
0.00090251
0.000928045
0.00095337
0.00097848
0.00100337
0.00102806
0.00105254
0.00107685
0.001101
0.00112503
0.00114895
0.0011728
0.00119661
0.00122043
0.00124428
0.0012682
0.00129223
0.0013164
0.00134074
0.00136529
0.00139009
0.00141515
0.00144051
0.00146619
0.00149222
0.00151861
0.00154539
0.00157258
0.00160017
0.0016282
0.00165666
0.00168556
0.00171491
0.0017447
0.00177494
0.00180563
0.00183675
0.00186831
0.00190028
0.00193267
0.00196546
0.00199863
0.00203217
0.00206605
0.00210027
0.0021348
0.00216961
0.00220469
0.00224
0.00227552
0.00231123
0.0023471
0.00238309
0.00241918
0.00245534
0.00249154
0.00252775
0.00256393
0.00260007
0.00263612
0.00267206
0.00270786
0.00274349
0.00277891
0.00281411
0.00284906
0.00288371
0.00291806
0.00295206
0.00298569
0.00301893
0.00305174
0.00308409
0.00311595
0.00314731
0.00317813
0.00320838
0.00323804
0.00326694
0.00329522
0.00332296
0.00335022
0.00337703
0.00340342
0.00342942
0.00345504
0.0034803
0.00350524
0.00352986
0.0035542
0.00357828
0.00360211
0.00362572
0.00364913
0.00367236
0.00369542
0.00371832
0.00374108
0.00376371
0.00378619
0.00380854
0.00383072
0.00385271
0.00387449
0.00389601
0.0039172
0.00393801
0.00395834
0.00397808
0.00399715
0.00401539
0.00403266
0.00404881
0.0040637
0.00407711
0.0040889
0.00409889
0.00410688
0.00411281
0.00411638
0.00411757
0.00411625
0.00411237
0.0041059
0.00409678
0.004085
0.00407049
0.0040532
0.00403311
0.00401033
0.00398512
0.00395778
0.00392858
0.00389776
0.00386554
0.00383214
0.00379774
0.00376251
0.00372662
0.00369024
0.00365351
0.00361656
0.00357952
0.00354251
0.00350563
0.00346898
0.00343264
0.00339669
0.0033612
0.00332624
0.00329183
0.00325801
0.00322477
0.00319204
0.00315963
0.00312709
0.00309339
0.0030564
0.00301516
1.32499e-05
0.000107873
0.000229721
0.000334965
0.000420216
0.000488935
0.000545143
0.000592297
0.000633123
0.000669665
0.0007034
0.000735351
0.000766199
0.00079638
0.000826154
0.000855666
0.000884989
0.000914147
0.00094314
0.000971955
0.00100057
0.00102898
0.00105715
0.00108509
0.00111279
0.00114024
0.00116746
0.00119447
0.00122127
0.0012479
0.00127438
0.00130075
0.00132702
0.00135325
0.00137947
0.0014057
0.001432
0.0014584
0.00148494
0.00151166
0.00153858
0.00156575
0.0015932
0.00162095
0.00164905
0.0016775
0.00170634
0.00173559
0.00176527
0.00179539
0.00182596
0.00185699
0.0018885
0.00192048
0.00195294
0.00198588
0.00201929
0.00205317
0.00208751
0.0021223
0.00215754
0.00219319
0.00222925
0.00226571
0.00230253
0.00233969
0.00237718
0.00241497
0.00245303
0.00249132
0.00252983
0.00256851
0.00260734
0.00264629
0.00268531
0.00272438
0.00276345
0.00280249
0.00284147
0.00288035
0.0029191
0.00295767
0.00299604
0.00303416
0.00307202
0.00310956
0.00314677
0.00318362
0.00322006
0.00325607
0.00329163
0.00332671
0.00336126
0.00339528
0.00342873
0.00346159
0.00349382
0.00352542
0.00355627
0.00358637
0.00361581
0.00364467
0.00367299
0.00370079
0.00372812
0.00375499
0.00378143
0.00380747
0.00383313
0.00385846
0.00388348
0.00390822
0.00393272
0.00395701
0.00398112
0.00400508
0.00402893
0.00405269
0.0040764
0.00410007
0.00412373
0.00414738
0.00417102
0.00419465
0.00421825
0.00424178
0.00426522
0.00428848
0.00431149
0.00433414
0.00435634
0.00437794
0.00439876
0.00441865
0.00443744
0.00445487
0.00447078
0.00448496
0.0044971
0.00450706
0.00451465
0.0045197
0.0045221
0.00452173
0.00451853
0.00451242
0.00450337
0.00449133
0.00447629
0.00445827
0.00443737
0.0044138
0.0043878
0.0043596
0.00432946
0.0042976
0.00426422
0.00422954
0.00419374
0.00415702
0.00411954
0.00408147
0.00404295
0.00400414
0.00396515
0.00392611
0.00388713
0.0038483
0.00380973
0.00377148
0.00373364
0.00369626
0.00365938
0.00362302
0.00358714
0.00355161
0.00351607
0.00347978
0.00344128
0.00339992
1.4002e-05
0.000111729
0.000242548
0.000358834
0.000455098
0.000534021
0.000599356
0.0006545
0.000702225
0.000744682
0.000783478
0.000819779
0.000854404
0.00088791
0.000920662
0.00095289
0.000984729
0.00101626
0.00104751
0.00107849
0.00110922
0.00113968
0.00116987
0.00119979
0.00122943
0.0012588
0.00128792
0.0013168
0.00134545
0.0013739
0.00140219
0.00143033
0.00145837
0.00148634
0.00151428
0.00154222
0.00157022
0.00159829
0.0016265
0.00165487
0.00168344
0.00171226
0.00174135
0.00177074
0.00180048
0.00183059
0.00186108
0.001892
0.00192335
0.00195515
0.00198743
0.00202018
0.00205342
0.00208716
0.00212139
0.00215612
0.00219135
0.00222707
0.00226326
0.00229993
0.00233706
0.00237463
0.00241263
0.00245103
0.00248982
0.00252897
0.00256845
0.00260824
0.00264831
0.00268862
0.00272914
0.00276984
0.00281068
0.00285163
0.00289264
0.00293367
0.00297469
0.00301565
0.00305651
0.00309724
0.00313778
0.0031781
0.00321816
0.00325792
0.00329734
0.00333639
0.00337503
0.00341322
0.00345094
0.00348815
0.00352483
0.00356094
0.00359645
0.00363134
0.00366559
0.00369916
0.00373203
0.00376417
0.00379548
0.00382603
0.0038559
0.00388513
0.00391375
0.0039418
0.00396931
0.0039963
0.00402281
0.00404887
0.00407452
0.00409979
0.00412473
0.00414937
0.00417377
0.00419796
0.004222
0.00424593
0.00426981
0.00429368
0.00431758
0.00434158
0.0043657
0.00438998
0.00441444
0.00443909
0.00446394
0.00448898
0.0045142
0.00453954
0.00456492
0.00459025
0.00461546
0.00464039
0.00466482
0.00468861
0.00471163
0.00473345
0.00475391
0.00477276
0.00478972
0.00480457
0.00481707
0.00482702
0.00483423
0.00483855
0.00483987
0.00483807
0.00483309
0.00482488
0.00481343
0.00479878
0.00478102
0.0047603
0.00473683
0.00471084
0.00468255
0.00465219
0.00461999
0.00458616
0.00455091
0.00451443
0.00447691
0.00443853
0.00439946
0.00435984
0.00431983
0.00427955
0.00423913
0.00419868
0.0041583
0.00411809
0.00407814
0.00403852
0.00399929
0.00396049
0.00392212
0.00388408
0.00384615
0.00380777
0.00376805
0.00372617
1.46217e-05
0.000114213
0.000251853
0.000377245
0.000483003
0.000570987
0.000644594
0.000707093
0.000761241
0.000809236
0.000852774
0.000893126
0.000931218
0.000967714
0.00100307
0.0010376
0.00107151
0.00110492
0.00113791
0.00117054
0.00120281
0.00123475
0.00126636
0.00129766
0.00132864
0.00135932
0.00138972
0.00141984
0.00144971
0.00147936
0.00150881
0.0015381
0.00156726
0.00159632
0.00162534
0.00165433
0.00168336
0.00171245
0.00174165
0.001771
0.00180054
0.00183031
0.00186034
0.00189068
0.00192134
0.00195237
0.00198379
0.00201563
0.00204791
0.00208064
0.00211385
0.00214755
0.00218175
0.00221645
0.00225166
0.00228739
0.00232362
0.00236036
0.0023976
0.00243533
0.00247354
0.00251221
0.00255133
0.00259087
0.00263082
0.00267114
0.00271182
0.00275282
0.00279411
0.00283567
0.00287745
0.00291941
0.00296153
0.00300375
0.00304603
0.00308834
0.00313062
0.00317284
0.00321493
0.00325687
0.00329859
0.00334006
0.00338123
0.00342205
0.00346248
0.00350249
0.00354202
0.00358104
0.00361952
0.00365743
0.00369472
0.00373137
0.00376736
0.00380264
0.00383721
0.00387102
0.00390405
0.00393625
0.00396762
0.00399821
0.00402806
0.00405722
0.00408572
0.00411357
0.00414082
0.00416749
0.00419361
0.00421922
0.00424436
0.00426909
0.00429344
0.00431747
0.00434124
0.0043648
0.00438822
0.00441157
0.00443491
0.0044583
0.00448184
0.00450557
0.00452958
0.00455393
0.00457865
0.00460379
0.00462938
0.00465546
0.00468205
0.00470909
0.00473652
0.00476428
0.00479233
0.00482052
0.00484856
0.00487631
0.00490357
0.00493003
0.00495542
0.00497947
0.00500188
0.00502235
0.00504059
0.00505635
0.00506938
0.00507946
0.00508642
0.0050901
0.00509039
0.00508723
0.00508058
0.00507046
0.00505695
0.00504017
0.0050203
0.00499756
0.00497215
0.00494431
0.00491426
0.00488224
0.00484845
0.00481312
0.00477643
0.00473859
0.00469977
0.00466015
0.00461987
0.00457909
0.00453794
0.00449654
0.00445502
0.00441348
0.00437202
0.00433073
0.0042897
0.00424899
0.00420861
0.00416854
0.00412861
0.00408845
0.00404744
0.00400487
1.51258e-05
0.000115573
0.000258133
0.000390772
0.000504473
0.000600277
0.000681179
0.000750264
0.000810221
0.000863256
0.00091111
0.000955127
0.000996317
0.00103543
0.001073
0.00110941
0.00114494
0.00117976
0.00121399
0.00124771
0.00128098
0.00131383
0.00134629
0.00137836
0.00141008
0.00144145
0.0014725
0.00150324
0.0015337
0.0015639
0.00159388
0.00162367
0.0016533
0.00168282
0.00171225
0.00174165
0.00177105
0.00180049
0.00183002
0.00185969
0.00188952
0.00191956
0.00194986
0.00198044
0.00201135
0.00204261
0.00207425
0.00210631
0.0021388
0.00217175
0.00220518
0.00223911
0.00227354
0.00230849
0.00234396
0.00237995
0.00241648
0.00245352
0.00249109
0.00252917
0.00256776
0.00260683
0.00264637
0.00268637
0.00272681
0.00276765
0.00280888
0.00285046
0.00289237
0.00293457
0.00297702
0.00301969
0.00306253
0.0031055
0.00314856
0.00319165
0.00323474
0.00327776
0.00332067
0.00336342
0.00340594
0.0034482
0.00349013
0.0035317
0.00357283
0.0036135
0.00365365
0.00369324
0.00373223
0.00377058
0.00380826
0.00384522
0.00388145
0.00391691
0.00395157
0.0039854
0.00401837
0.00405048
0.00408175
0.00411221
0.00414189
0.00417081
0.00419899
0.00422647
0.00425326
0.00427939
0.0043049
0.00432983
0.00435423
0.00437814
0.00440162
0.00442474
0.00444756
0.00447015
0.00449258
0.00451495
0.00453734
0.00455984
0.00458254
0.00460556
0.00462899
0.00465292
0.00467742
0.00470256
0.00472842
0.00475507
0.00478258
0.00481095
0.00484007
0.00486993
0.00490047
0.00493158
0.00496305
0.00499469
0.00502628
0.00505753
0.00508815
0.00511781
0.00514616
0.00517287
0.00519758
0.00521996
0.0052397
0.0052565
0.00527011
0.00528033
0.005287
0.00528998
0.00528922
0.00528471
0.00527649
0.00526467
0.00524939
0.00523085
0.00520925
0.00518483
0.00515782
0.00512844
0.00509694
0.00506353
0.00502844
0.00499186
0.004954
0.00491504
0.00487514
0.00483447
0.00479318
0.00475141
0.00470928
0.00466692
0.00462445
0.00458197
0.00453958
0.00449736
0.00445536
0.0044136
0.00437197
0.00433021
0.00428788
0.00424443
1.55273e-05
0.000115997
0.000261788
0.000399907
0.000519988
0.000622299
0.00070941
0.000784182
0.000849202
0.000906643
0.000958264
0.00100545
0.00104927
0.00109054
0.00112986
0.00116768
0.00120433
0.00124004
0.00127497
0.00130924
0.00134293
0.00137609
0.00140877
0.00144101
0.00147282
0.00150423
0.00153527
0.00156597
0.00159635
0.00162644
0.00165627
0.00168588
0.00171531
0.00174459
0.00177377
0.00180288
0.00183197
0.00186108
0.00189026
0.00191955
0.00194899
0.00197863
0.0020085
0.00203864
0.0020691
0.0020999
0.00213108
0.00216267
0.0021947
0.00222719
0.00226017
0.00229364
0.00232764
0.00236216
0.00239723
0.00243285
0.00246902
0.00250574
0.00254301
0.00258083
0.00261919
0.00265808
0.00269749
0.00273739
0.00277778
0.00281863
0.00285991
0.0029016
0.00294367
0.00298608
0.00302879
0.00307177
0.00311498
0.00315837
0.00320188
0.00324548
0.00328911
0.0033327
0.00337621
0.00341958
0.00346274
0.00350564
0.00354821
0.0035904
0.00363216
0.00367342
0.00371412
0.00375423
0.00379369
0.00383246
0.00387049
0.00390775
0.00394421
0.00397982
0.00401456
0.00404839
0.00408135
0.00411344
0.00414468
0.00417507
0.00420462
0.00423334
0.00426125
0.00428836
0.0043147
0.0043403
0.00436518
0.0043894
0.00441299
0.004436
0.00445852
0.00448059
0.00450231
0.00452375
0.00454499
0.00456614
0.00458731
0.00460861
0.00463016
0.00465209
0.00467454
0.00469768
0.00472153
0.00474622
0.00477189
0.00479862
0.00482651
0.00485561
0.0048859
0.00491739
0.00495003
0.00498374
0.00501836
0.0050537
0.00508955
0.00512562
0.00516159
0.00519711
0.00523177
0.00526519
0.00529694
0.00532662
0.00535382
0.00537818
0.00539937
0.00541709
0.00543111
0.00544125
0.0054474
0.0054495
0.00544756
0.00544164
0.00543189
0.00541845
0.00540155
0.0053814
0.00535823
0.00533229
0.00530382
0.00527306
0.00524025
0.00520559
0.00516932
0.00513161
0.00509266
0.00505265
0.00501174
0.00497008
0.00492782
0.00488509
0.00484202
0.00479873
0.00475535
0.00471197
0.00466868
0.0046255
0.00458239
0.00453917
0.00449549
0.00445089
1.58366e-05
0.000115633
0.000263152
0.000405073
0.000529968
0.000637404
0.000729531
0.000808961
0.000878151
0.000939214
0.000993898
0.00104361
0.00108945
0.00113229
0.00117279
0.00121145
0.00124864
0.00128464
0.00131966
0.00135384
0.00138729
0.0014201
0.00145232
0.00148402
0.00151522
0.00154596
0.00157627
0.0016062
0.00163576
0.001665
0.00169395
0.00172265
0.00175113
0.00177944
0.00180762
0.00183571
0.00186376
0.00189181
0.00191991
0.0019481
0.00197643
0.00200494
0.00203368
0.00206269
0.002092
0.00212166
0.0021517
0.00218215
0.00221306
0.00224443
0.00227631
0.00230871
0.00234165
0.00237515