/*--------------------------------*- C++ -*----------------------------------*\
| =========                 |                                                 |
| \\      /  F ield         | OpenFOAM: The Open Source CFD Toolbox           |
|  \\    /   O peration     | Version:  2.2.x                                 |
|   \\  /    A nd           | Web:      www.OpenFOAM.org                      |
|    \\/     M anipulation  |                                                 |
\*---------------------------------------------------------------------------*/
FoamFile
{
    version     2.0;
    format      ascii;
    class       volScalarField;
    location    "550";
    object      p;
}
// * * * * * * * * * * * * * * * * * * * * * * * * * * * * * * * * * * * * * //

dimensions      [0 2 -2 0 0 0 0];

internalField   nonuniform List<scalar> 
12225
(
-0.431447
-3.13628
-3.98425
-4.22393
-4.38815
-4.52956
-4.64364
-4.73842
-4.82238
-4.89976
-4.97254
-5.04199
-5.1091
-5.1746
-5.23887
-5.30108
-5.35801
-5.32539
-4.21993
-4.57483
-4.68592
-4.64068
-4.64776
-4.69683
-4.75544
-4.81535
-4.87644
-4.93838
-5.00048
-5.06238
-5.12404
-5.18557
-5.24707
-5.30867
-5.37511
-5.49115
-4.06703
-3.91206
-4.11409
-4.2489
-4.37242
-4.49825
-4.61105
-4.70934
-4.79762
-4.87901
-4.9552
-5.02742
-5.09673
-5.16403
-5.23021
-5.29674
-5.36888
-5.46568
-3.98255
-3.97152
-4.2443
-4.41274
-4.52472
-4.62597
-4.71563
-4.79419
-4.86598
-4.93385
-4.99909
-5.06245
-5.1246
-5.18615
-5.24786
-5.31122
-5.38011
-5.46361
-4.01888
-4.06797
-4.28048
-4.41724
-4.51012
-4.59952
-4.68457
-4.76287
-4.8363
-4.90655
-4.97435
-5.0402
-5.10458
-5.16806
-5.23138
-5.2958
-5.36359
-5.43734
-4.09291
-4.14341
-4.30404
-4.42778
-4.52082
-4.60997
-4.69508
-4.77371
-4.84713
-4.91691
-4.98389
-5.04867
-5.11179
-5.17384
-5.23547
-5.29756
-5.36119
-5.42631
-4.15831
-4.20038
-4.32754
-4.44156
-4.53292
-4.61878
-4.70063
-4.7769
-4.8485
-4.91673
-4.98236
-5.04591
-5.10785
-5.16862
-5.22867
-5.28845
-5.34818
-5.40658
-4.2096
-4.24638
-4.35298
-4.45719
-4.54487
-4.62722
-4.70613
-4.78046
-4.85072
-4.91786
-4.98252
-5.04512
-5.10603
-5.16559
-5.22406
-5.28162
-5.33816
-5.39208
-4.25307
-4.28615
-4.377
-4.47196
-4.55564
-4.63473
-4.71096
-4.78342
-4.8523
-4.91829
-4.98189
-5.04344
-5.10323
-5.16149
-5.21837
-5.27384
-5.32765
-5.37818
-4.29828
-4.32762
-4.40393
-4.48916
-4.56806
-4.64346
-4.71663
-4.78684
-4.854
-4.91854
-4.98081
-5.04105
-5.09946
-5.15617
-5.2112
-5.26442
-5.31547
-5.36296
-4.34442
-4.36992
-4.43348
-4.50891
-4.58228
-4.65351
-4.72321
-4.79074
-4.85581
-4.91855
-4.97918
-5.03782
-5.09456
-5.14945
-5.2024
-5.25323
-5.30157
-5.34632
-4.3905
-4.41228
-4.46503
-4.53096
-4.5982
-4.66481
-4.73069
-4.79515
-4.85773
-4.91834
-4.977
-5.03374
-5.08854
-5.14135
-5.19206
-5.24045
-5.2862
-5.32849
-4.43539
-4.45375
-4.49753
-4.55464
-4.61546
-4.67713
-4.73888
-4.79993
-4.85967
-4.9178
-4.97419
-5.02874
-5.08134
-5.1319
-5.18026
-5.22622
-5.26955
-5.30963
-4.47766
-4.49306
-4.52955
-4.5788
-4.63329
-4.68987
-4.74733
-4.80474
-4.86137
-4.91674
-4.9706
-5.02272
-5.07296
-5.12115
-5.16714
-5.21076
-5.25184
-5.28994
-4.51549
-4.52846
-4.55919
-4.60178
-4.6504
-4.70205
-4.75525
-4.80895
-4.86232
-4.91478
-4.96595
-5.01554
-5.06333
-5.10914
-5.15282
-5.19424
-5.23328
-5.26962
-4.54653
-4.55763
-4.584
-4.62129
-4.66488
-4.71209
-4.76135
-4.81154
-4.86175
-4.91134
-4.95984
-5.00692
-5.05233
-5.09587
-5.1374
-5.17682
-5.21403
-5.24883
-4.56748
-4.57728
-4.60066
-4.63418
-4.674
-4.7177
-4.76374
-4.81096
-4.85844
-4.9055
-4.95162
-4.99646
-5.03975
-5.08129
-5.12096
-5.15867
-5.19436
-5.22787
-4.57328
-4.58245
-4.60444
-4.63616
-4.67409
-4.71593
-4.76015
-4.80558
-4.85133
-4.89671
-4.94121
-4.98447
-5.02623
-5.06632
-5.10462
-5.14107
-5.17561
-5.2081
-4.56356
-4.57275
-4.59489
-4.62687
-4.66499
-4.70684
-4.75087
-4.79598
-4.84126
-4.88608
-4.92993
-4.9725
-5.01354
-5.05291
-5.09051
-5.12628
-5.16022
-5.19219
-4.54269
-4.55231
-4.5758
-4.60972
-4.64973
-4.69304
-4.73814
-4.784
-4.82978
-4.87485
-4.91878
-4.96129
-5.00216
-5.04127
-5.07857
-5.11401
-5.1476
-5.17921
-4.51388
-4.52406
-4.54993
-4.58743
-4.63073
-4.67659
-4.72366
-4.77108
-4.81805
-4.864
-4.90855
-4.95149
-4.99266
-5.03195
-5.06935
-5.10484
-5.13844
-5.17007
-4.47949
-4.48983
-4.51917
-4.56203
-4.60978
-4.65881
-4.70838
-4.75781
-4.8063
-4.85335
-4.89871
-4.94223
-4.98378
-5.02332
-5.06084
-5.09633
-5.12984
-5.16123
-4.44155
-4.45062
-4.48493
-4.5355
-4.58872
-4.64139
-4.69392
-4.74577
-4.79616
-4.8447
-4.89124
-4.9357
-4.97801
-5.01815
-5.05613
-5.09197
-5.12575
-5.15741
-4.402
-4.40668
-4.44805
-4.50835
-4.5671
-4.6233
-4.67877
-4.7328
-4.78463
-4.83415
-4.88141
-4.92643
-4.96917
-5.00965
-5.04787
-5.08383
-5.11753
-5.14873
-4.36205
-4.35831
-4.41365
-4.48599
-4.54921
-4.60926
-4.66899
-4.72651
-4.78092
-4.83242
-4.8812
-4.92737
-4.97097
-5.01208
-5.05074
-5.08701
-5.1209
-5.15239
-4.31909
-4.28979
-4.37512
-4.46307
-4.52537
-4.58371
-4.64305
-4.70046
-4.75505
-4.80715
-4.8569
-4.90425
-4.94918
-4.99168
-5.03176
-5.06937
-5.1043
-5.13586
-4.31305
-4.19818
-4.3376
-4.46782
-4.5504
-4.62082
-4.6859
-4.74437
-4.79756
-4.84714
-4.89387
-4.93805
-4.97987
-5.01948
-5.05696
-5.09233
-5.12545
-5.15599
-4.41041
-4.07916
-4.1546
-4.25637
-4.34721
-4.44245
-4.533
-4.61402
-4.6869
-4.75345
-4.81461
-4.87097
-4.92306
-4.97137
-5.0163
-5.05814
-5.09687
-5.13177
-4.70919
-4.77419
-4.80652
-4.73271
-4.69864
-4.71016
-4.73872
-4.77295
-4.81076
-4.85088
-4.89191
-4.93277
-4.97286
-5.01184
-5.04956
-5.08603
-5.12135
-5.15667
-1.01485
-3.20859
-4.00619
-4.22566
-4.35956
-4.47819
-4.57526
-4.65481
-4.72383
-4.78606
-4.84302
-4.89554
-4.94428
-4.98978
-5.03249
-5.07298
-5.11196
-5.15422
-6.02385
-6.02425
-6.02545
-6.027
-6.02859
-6.03026
-6.03237
-6.03516
-6.03861
-6.04273
-6.04756
-6.05314
-6.05948
-6.06657
-6.07442
-6.08302
-6.09234
-6.10236
-6.11305
-6.12438
-6.13632
-6.14884
-6.1619
-6.17549
-6.18958
-6.20415
-6.21917
-6.23464
-6.25053
-6.26685
-6.28359
-6.30077
-6.31837
-6.33633
-6.35462
-6.37324
-6.39221
-6.41153
-6.43118
-6.45116
-6.47148
-6.49211
-6.51305
-6.53428
-6.55579
-6.57754
-6.59953
-6.62171
-6.64405
-6.66653
-6.68909
-6.71168
-6.73427
-6.75678
-6.77917
-6.80136
-6.82327
-6.84484
-6.86597
-6.88658
-6.90657
-6.92585
-6.9443
-6.96181
-6.97825
-6.99351
-7.00746
-7.01994
-7.03083
-7.03996
-7.04718
-7.05233
-7.05522
-7.05569
-7.05354
-7.04857
-7.04059
-7.02938
-7.01473
-6.9964
-6.97415
-6.94775
-6.91694
-6.88146
-6.84103
-6.79537
-6.74421
-6.68726
-6.62421
-6.55477
-6.47864
-6.3955
-6.30508
-6.20705
-6.10114
-5.98703
-5.86445
-5.73313
-5.59282
-5.44319
-5.28392
-5.11471
-4.9354
-4.74581
-4.54579
-4.33518
-4.11383
-3.88162
-3.63845
-3.38424
-3.11895
-2.84257
-2.55512
-2.25668
-1.94736
-1.62733
-1.29682
-0.956096
-0.605515
-0.245482
0.123529
0.500973
0.886227
1.27859
1.67728
2.08148
2.49028
2.90269
3.31766
3.73411
4.15088
4.56679
4.9806
5.39108
5.79697
6.19703
6.59002
6.97475
7.35007
7.7149
8.06822
8.40914
8.73683
9.05059
9.34985
9.6341
9.90328
10.1568
10.3942
10.618
10.8278
11.0211
11.1987
11.3612
11.5094
11.6439
11.7654
11.8745
11.9718
12.0582
12.1344
12.201
12.2587
12.3083
12.3503
12.3855
12.4145
12.4379
12.4563
12.4703
12.4804
12.4872
12.4912
12.4932
12.4938
12.494
12.4955
12.5007
12.5198
12.5564
-6.02002
-6.02113
-6.02259
-6.02383
-6.02457
-6.02506
-6.02581
-6.02728
-6.0296
-6.03277
-6.03679
-6.04165
-6.04735
-6.05388
-6.06121
-6.06932
-6.07819
-6.08779
-6.09808
-6.10902
-6.1206
-6.13276
-6.14548
-6.15873
-6.17249
-6.18674
-6.20144
-6.21659
-6.23217
-6.24817
-6.26458
-6.2814
-6.29861
-6.31619
-6.33412
-6.3524
-6.37103
-6.39
-6.40931
-6.42895
-6.44892
-6.46921
-6.4898
-6.51069
-6.53185
-6.55326
-6.57491
-6.59676
-6.61877
-6.64092
-6.66317
-6.68546
-6.70775
-6.72998
-6.75209
-6.77402
-6.79569
-6.81703
-6.83795
-6.85837
-6.8782
-6.89733
-6.91565
-6.93306
-6.94944
-6.96467
-6.9786
-6.99112
-7.00206
-7.0113
-7.01867
-7.024
-7.02712
-7.02787
-7.02605
-7.02147
-7.01393
-7.00322
-6.98913
-6.97143
-6.94989
-6.92427
-6.89431
-6.85976
-6.82035
-6.7758
-6.72583
-6.67016
-6.60848
-6.54051
-6.46593
-6.38446
-6.29578
-6.19961
-6.09564
-5.98358
-5.86315
-5.73411
-5.5962
-5.44902
-5.2922
-5.1255
-4.94879
-4.76189
-4.56465
-4.35689
-4.13849
-3.9093
-3.66922
-3.41819
-3.15615
-2.88307
-2.59899
-2.30396
-1.9981
-1.68156
-1.35456
-1.01736
-0.670292
-0.313753
0.0518034
0.425848
0.807775
1.1969
1.59249
1.99372
2.39971
2.80949
3.22205
3.63631
4.05116
4.46543
4.8779
5.28736
5.69259
6.09233
6.48537
6.87054
7.24667
7.61269
7.96758
8.31042
8.64037
8.95667
9.2588
9.54615
9.81904
10.0771
10.3191
10.5461
10.7579
10.9537
11.134
11.2995
11.4507
11.5883
11.7128
11.825
11.9255
12.015
12.0941
12.1636
12.2242
12.2765
12.3211
12.3588
12.3902
12.4158
12.4363
12.4522
12.4641
12.4726
12.4783
12.4818
12.4839
12.4857
12.4892
12.4963
12.5182
12.5477
-6.01084
-6.01371
-6.01718
-6.01931
-6.0201
-6.02041
-6.02093
-6.02204
-6.02393
-6.02666
-6.03024
-6.03468
-6.03997
-6.04607
-6.05298
-6.06066
-6.06909
-6.07822
-6.08804
-6.09851
-6.1096
-6.12127
-6.13349
-6.14625
-6.1595
-6.17324
-6.18744
-6.20209
-6.21716
-6.23266
-6.24856
-6.26486
-6.28154
-6.2986
-6.31602
-6.3338
-6.35194
-6.37042
-6.38924
-6.40841
-6.4279
-6.44771
-6.46784
-6.48826
-6.50896
-6.52991
-6.5511
-6.5725
-6.59408
-6.61579
-6.63761
-6.65949
-6.68137
-6.7032
-6.72493
-6.74649
-6.76781
-6.78881
-6.80942
-6.82954
-6.84909
-6.86797
-6.88607
-6.90329
-6.9195
-6.93458
-6.94842
-6.96087
-6.9718
-6.98105
-6.98849
-6.99393
-6.99723
-6.9982
-6.99666
-6.99243
-6.98531
-6.97509
-6.96156
-6.94451
-6.9237
-6.8989
-6.86986
-6.83631
-6.79801
-6.75468
-6.70603
-6.65179
-6.59166
-6.52535
-6.45255
-6.37297
-6.2863
-6.19226
-6.09054
-5.98084
-5.86291
-5.73652
-5.60136
-5.45695
-5.30293
-5.13918
-4.96552
-4.78178
-4.5878
-4.38341
-4.16847
-3.94285
-3.70646
-3.4592
-3.20102
-2.9319
-2.65185
-2.36093
-2.05924
-1.74693
-1.4242
-1.09131
-0.748573
-0.396368
-0.0351371
0.334609
0.712283
1.09723
1.48872
1.88596
2.2881
2.6942
3.10326
3.51424
3.92605
4.33755
4.74754
5.15484
5.55825
5.95652
6.34849
6.73297
7.10881
7.47494
7.83031
8.17401
8.50519
8.8231
9.12747
9.41786
9.6941
9.95552
10.2015
10.4334
10.6506
10.8522
11.0383
11.2096
11.3665
11.5096
11.6396
11.757
11.8625
11.9567
12.0405
12.1144
12.1791
12.2353
12.2836
12.3248
12.3594
12.388
12.4112
12.4297
12.444
12.4546
12.4623
12.4677
12.4716
12.4752
12.4805
12.4887
12.5119
12.5276
-5.9992
-6.00376
-6.00985
-6.01401
-6.01625
-6.01764
-6.01888
-6.02039
-6.02243
-6.02515
-6.02861
-6.03286
-6.03791
-6.04374
-6.05033
-6.05767
-6.06573
-6.07448
-6.08388
-6.09392
-6.10456
-6.11578
-6.12754
-6.13982
-6.1526
-6.16586
-6.17958
-6.19374
-6.20834
-6.22335
-6.23876
-6.25458
-6.27078
-6.28737
-6.30433
-6.32166
-6.33936
-6.35741
-6.37582
-6.39458
-6.41367
-6.43309
-6.45284
-6.47288
-6.49322
-6.51382
-6.53467
-6.55573
-6.57698
-6.59838
-6.61989
-6.64147
-6.66308
-6.68464
-6.70612
-6.72744
-6.74853
-6.76932
-6.78973
-6.80968
-6.82908
-6.84782
-6.86581
-6.88293
-6.89908
-6.91413
-6.92796
-6.94044
-6.95143
-6.96079
-6.96836
-6.97398
-6.9775
-6.97875
-6.97754
-6.97369
-6.96701
-6.9573
-6.94436
-6.92795
-6.90786
-6.88386
-6.85569
-6.82312
-6.78587
-6.74368
-6.69627
-6.64336
-6.58465
-6.51985
-6.44867
-6.37079
-6.28593
-6.19379
-6.09406
-5.98645
-5.87072
-5.74665
-5.61378
-5.47163
-5.31998
-5.1587
-4.98759
-4.80649
-4.61522
-4.41363
-4.20157
-3.97891
-3.74554
-3.50138
-3.24635
-2.98044
-2.70365
-2.41603
-2.11767
-1.8087
-1.48933
-1.15979
-0.820401
-0.471517
-0.113569
0.252947
0.627462
1.00934
1.39785
1.79224
2.19165
2.59519
3.00187
3.41065
3.82047
4.23022
4.6387
5.04476
5.44721
5.84481
6.23641
6.62082
6.99686
7.36351
7.71964
8.06447
8.39721
8.71753
9.02486
9.31818
9.59748
9.86225
10.112
10.3476
10.5687
10.7744
10.9649
11.1405
11.3017
11.4491
11.5832
11.7046
11.814
11.912
11.9993
12.0766
12.1445
12.2038
12.255
12.2988
12.3358
12.3667
12.392
12.4124
12.4284
12.4406
12.4497
12.4563
12.4613
12.4657
12.4717
12.4789
12.4997
12.5006
-5.98859
-5.99448
-6.00294
-6.00932
-6.01333
-6.01611
-6.01844
-6.02075
-6.02335
-6.02643
-6.03012
-6.03448
-6.03954
-6.04532
-6.0518
-6.05897
-6.06682
-6.07531
-6.08443
-6.09415
-6.10444
-6.11529
-6.12666
-6.13855
-6.15092
-6.16376
-6.17706
-6.1908
-6.20497
-6.21955
-6.23455
-6.24995
-6.26575
-6.28194
-6.29852
-6.31547
-6.33281
-6.35051
-6.36858
-6.38701
-6.40579
-6.42492
-6.44437
-6.46414
-6.48421
-6.50456
-6.52516
-6.546
-6.56703
-6.58823
-6.60955
-6.63095
-6.65239
-6.6738
-6.69513
-6.71632
-6.7373
-6.75799
-6.77832
-6.7982
-6.81754
-6.83625
-6.85422
-6.87134
-6.88751
-6.90261
-6.91651
-6.92909
-6.9402
-6.94971
-6.95747
-6.96331
-6.96709
-6.96864
-6.96777
-6.96431
-6.95807
-6.94886
-6.93646
-6.92066
-6.90125
-6.87798
-6.85062
-6.81892
-6.78261
-6.74144
-6.69512
-6.64337
-6.5859
-6.52242
-6.45262
-6.3762
-6.29286
-6.2023
-6.10423
-5.99835
-5.88444
-5.76223
-5.63111
-5.49069
-5.34089
-5.18154
-5.01243
-4.83339
-4.64426
-4.44486
-4.23504
-4.01467
-3.78364
-3.54185
-3.28923
-3.02575
-2.7514
-2.46623
-2.17032
-1.86379
-1.54684
-1.2197
-0.882658
-0.536079
-0.180375
0.183974
0.55641
0.936304
1.32295
1.71558
2.11338
2.51545
2.92084
3.32848
3.73735
4.14637
4.5543
4.96002
5.36239
5.76009
6.15203
6.537
6.91375
7.28144
7.63889
7.9858
8.32124
8.64408
8.95397
9.25005
9.53214
9.79975
10.0525
10.2907
10.5143
10.7227
10.9161
11.0946
11.2588
11.409
11.546
11.6701
11.7822
11.8828
11.9725
12.0521
12.1222
12.1835
12.2366
12.2821
12.3208
12.3531
12.3798
12.4013
12.4183
12.4314
12.4412
12.4483
12.4536
12.458
12.4633
12.4682
12.4851
12.4725
-5.98133
-5.98815
-5.99826
-6.00649
-6.01215
-6.01632
-6.01979
-6.02302
-6.02633
-6.02994
-6.034
-6.03861
-6.04383
-6.04966
-6.05613
-6.06323
-6.07095
-6.07927
-6.08817
-6.09764
-6.10765
-6.1182
-6.12925
-6.1408
-6.15282
-6.16531
-6.17825
-6.19162
-6.20543
-6.21965
-6.2343
-6.24935
-6.26481
-6.28067
-6.29693
-6.31359
-6.33063
-6.34806
-6.36586
-6.38405
-6.4026
-6.4215
-6.44075
-6.46033
-6.48022
-6.5004
-6.52086
-6.54155
-6.56246
-6.58355
-6.60477
-6.62608
-6.64744
-6.66879
-6.69007
-6.71122
-6.73217
-6.75285
-6.77318
-6.79307
-6.81243
-6.83117
-6.8492
-6.86639
-6.88265
-6.89785
-6.91188
-6.9246
-6.93588
-6.94558
-6.95355
-6.95965
-6.96371
-6.96557
-6.96505
-6.96199
-6.95618
-6.94745
-6.93558
-6.92037
-6.90159
-6.87901
-6.8524
-6.82151
-6.78607
-6.74583
-6.7005
-6.6498
-6.59344
-6.53112
-6.46254
-6.38739
-6.30538
-6.21619
-6.11952
-6.01511
-5.90274
-5.782
-5.65223
-5.51319
-5.36487
-5.20706
-5.03957
-4.8622
-4.67477
-4.47713
-4.26911
-4.05057
-3.82139
-3.58147
-3.33074
-3.06914
-2.79668
-2.51337
-2.21929
-1.91457
-1.59939
-1.27397
-0.9386
-0.593625
-0.239449
0.123465
0.494566
0.873227
1.25875
1.65036
2.04728
2.44863
2.85343
3.26062
3.6692
4.07813
4.48611
4.89201
5.29481
5.693
6.08566
6.47158
6.84946
7.21899
7.5788
7.92785
8.26544
8.5906
8.9028
9.20132
9.48582
9.75584
10.011
10.2515
10.4771
10.6877
10.8832
11.0639
11.2302
11.3826
11.5217
11.6478
11.7618
11.8642
11.9557
12.0369
12.1085
12.1711
12.2255
12.2722
12.3118
12.345
12.3725
12.3946
12.4121
12.4255
12.4355
12.4426
12.4477
12.4513
12.4554
12.4572
12.4702
12.4449
-5.97868
-5.98592
-5.99691
-6.00638
-6.01329
-6.01862
-6.0231
-6.02718
-6.03118
-6.03534
-6.03981
-6.04472
-6.05013
-6.05607
-6.06258
-6.06966
-6.0773
-6.0855
-6.09424
-6.10351
-6.1133
-6.1236
-6.13439
-6.14565
-6.15739
-6.16958
-6.18221
-6.19529
-6.2088
-6.22273
-6.23709
-6.25186
-6.26705
-6.28266
-6.29867
-6.3151
-6.33192
-6.34915
-6.36677
-6.38478
-6.40317
-6.42194
-6.44106
-6.46052
-6.48032
-6.50042
-6.5208
-6.54144
-6.5623
-6.58335
-6.60455
-6.62585
-6.64721
-6.66857
-6.68987
-6.71105
-6.73204
-6.75277
-6.77316
-6.79312
-6.81257
-6.8314
-6.84953
-6.86684
-6.88322
-6.89857
-6.91275
-6.92565
-6.93712
-6.94703
-6.95524
-6.96159
-6.96593
-6.96811
-6.96794
-6.96526
-6.95987
-6.95159
-6.94023
-6.92556
-6.90738
-6.88545
-6.85953
-6.82939
-6.79476
-6.75537
-6.71094
-6.6612
-6.60584
-6.54456
-6.47706
-6.40304
-6.32218
-6.23417
-6.13873
-6.0356
-5.92455
-5.80487
-5.67608
-5.53819
-5.39108
-5.23454
-5.06836
-4.89236
-4.70634
-4.51014
-4.30358
-4.08653
-3.85884
-3.62041
-3.37117
-3.11105
-2.84004
-2.55814
-2.26544
-1.96206
-1.64815
-1.32394
-0.989719
-0.645816
-0.292624
0.0694133
0.439746
0.817744
1.20271
1.59386
1.99045
2.39164
2.7964
3.20362
3.6124
4.02171
4.43012
4.83655
5.24014
5.63915
6.03293
6.42066
6.80054
7.17187
7.53358
7.88464
8.22426
8.55154
8.86586
9.16654
9.45315
9.72526
9.9825
10.2249
10.4523
10.6646
10.8619
11.0443
11.2123
11.3664
11.5069
11.6346
11.7499
11.8536
11.9463
12.0286
12.1011
12.1647
12.2198
12.2672
12.3074
12.3411
12.3688
12.3912
12.4088
12.4221
12.4319
12.4386
12.443
12.4454
12.4477
12.4461
12.4554
12.4184
-5.98048
-5.98775
-5.99898
-6.00911
-6.01686
-6.02303
-6.02829
-6.03306
-6.03764
-6.04227
-6.04712
-6.0523
-6.0579
-6.06396
-6.07052
-6.07758
-6.08517
-6.09327
-6.10188
-6.11099
-6.1206
-6.13069
-6.14126
-6.1523
-6.16379
-6.17574
-6.18814
-6.20098
-6.21425
-6.22796
-6.24209
-6.25666
-6.27166
-6.28708
-6.30292
-6.31919
-6.33588
-6.35298
-6.37049
-6.3884
-6.40672
-6.42541
-6.44448
-6.46391
-6.48369
-6.50377
-6.52416
-6.54481
-6.5657
-6.58679
-6.60803
-6.62939
-6.65081
-6.67224
-6.69362
-6.71489
-6.73598
-6.75681
-6.7773
-6.79737
-6.81694
-6.8359
-6.85417
-6.87162
-6.88816
-6.90366
-6.91802
-6.9311
-6.94277
-6.95289
-6.96133
-6.96794
-6.97255
-6.97503
-6.97518
-6.97286
-6.96786
-6.96001
-6.94911
-6.93495
-6.91732
-6.89598
-6.87071
-6.84126
-6.80736
-6.76875
-6.72515
-6.67627
-6.62181
-6.56147
-6.49495
-6.42192
-6.34208
-6.2551
-6.16072
-6.05872
-5.94868
-5.82977
-5.70174
-5.56478
-5.41866
-5.26317
-5.09809
-4.92322
-4.73838
-4.54336
-4.33801
-4.12217
-3.8957
-3.65847
-3.41041
-3.15145
-2.88155
-2.60072
-2.30903
-2.00659
-1.69356
-1.37016
-1.03666
-0.693402
-0.340755
0.0208665
0.390904
0.768713
1.15359
1.54472
1.94145
2.34296
2.74813
3.15575
3.56509
3.97522
4.38438
4.79165
5.19662
5.59746
5.99293
6.38224
6.76394
7.13712
7.50071
7.85373
8.1953
8.52456
8.84084
9.14347
9.43195
9.70587
9.96487
10.2089
10.4378
10.6515
10.8501
11.0339
11.2032
11.3584
11.5001
11.6288
11.7451
11.8496
11.943
12.0259
12.0991
12.1631
12.2186
12.2662
12.3066
12.3403
12.3681
12.3903
12.4077
12.4207
12.4299
12.4358
12.4392
12.4401
12.4402
12.4351
12.4409
12.3931
-5.98622
-5.99323
-6.00423
-6.01451
-6.02268
-6.02936
-6.03513
-6.04039
-6.0454
-6.05039
-6.05552
-6.06091
-6.06665
-6.0728
-6.07938
-6.08643
-6.09396
-6.10197
-6.11046
-6.11944
-6.12889
-6.13881
-6.1492
-6.16005
-6.17137
-6.18313
-6.19534
-6.208
-6.22111
-6.23465
-6.24864
-6.26307
-6.27794
-6.29326
-6.30901
-6.32519
-6.34181
-6.35886
-6.37634
-6.39424
-6.41254
-6.43125
-6.45034
-6.46981
-6.48962
-6.50977
-6.53022
-6.55095
-6.57193
-6.59311
-6.61446
-6.63592
-6.65746
-6.67901
-6.70051
-6.72191
-6.74312
-6.76409
-6.78472
-6.80493
-6.82464
-6.84375
-6.86215
-6.87976
-6.89645
-6.91212
-6.92664
-6.9399
-6.95175
-6.96207
-6.97071
-6.97754
-6.9824
-6.98514
-6.98559
-6.98357
-6.97892
-6.97145
-6.96096
-6.94726
-6.93012
-6.90932
-6.88463
-6.8558
-6.82257
-6.78467
-6.74182
-6.69372
-6.64008
-6.58058
-6.51492
-6.44277
-6.36382
-6.27776
-6.18434
-6.08332
-5.97388
-5.8554
-5.72806
-5.59188
-5.4466
-5.292
-5.12785
-4.95395
-4.77009
-4.57608
-4.37174
-4.15691
-3.93144
-3.69519
-3.44808
-3.19004
-2.92098
-2.64093
-2.34996
-2.04816
-1.7357
-1.41278
-1.07966
-0.736701
-0.384249
-0.0226539
0.347492
0.72551
1.11068
1.50214
1.89937
2.30161
2.70757
3.11586
3.52604
3.93747
4.34824
4.75714
5.16354
5.56602
5.96329
6.35435
6.73792
7.11298
7.47848
7.83341
8.17687
8.508
8.82609
9.13046
9.42061
9.69609
9.95657
10.2019
10.432
10.6469
10.8465
11.0313
11.2015
11.3575
11.4999
11.6292
11.746
11.851
11.9448
12.028
12.1013
12.1654
12.2209
12.2685
12.3088
12.3423
12.3697
12.3915
12.4083
12.4207
12.429
12.434
12.436
12.4351
12.4329
12.4242
12.4266
12.3691
-5.99521
-6.00175
-6.01214
-6.02216
-6.03038
-6.03726
-6.04329
-6.04881
-6.05408
-6.05928
-6.06459
-6.07011
-6.07593
-6.0821
-6.08868
-6.0957
-6.10315
-6.11107
-6.11945
-6.1283
-6.13762
-6.1474
-6.15765
-6.16836
-6.17953
-6.19115
-6.20324
-6.21578
-6.22878
-6.24224
-6.25614
-6.27051
-6.28533
-6.3006
-6.31633
-6.33251
-6.34914
-6.36622
-6.38373
-6.40168
-6.42005
-6.43883
-6.45801
-6.47757
-6.4975
-6.51776
-6.53834
-6.5592
-6.58031
-6.60163
-6.62312
-6.64474
-6.66642
-6.68812
-6.70977
-6.73131
-6.75268
-6.77379
-6.79456
-6.81492
-6.83477
-6.85401
-6.87256
-6.8903
-6.90712
-6.92293
-6.93758
-6.95098
-6.96297
-6.97345
-6.98225
-6.98926
-6.99431
-6.99725
-6.99792
-6.99616
-6.99179
-6.98463
-6.97449
-6.96117
-6.94445
-6.92412
-6.89994
-6.87166
-6.83902
-6.80176
-6.75957
-6.71217
-6.65926
-6.60051
-6.53562
-6.46425
-6.38608
-6.30083
-6.20827
-6.10791
-5.99872
-5.88055
-5.75382
-5.6183
-5.47375
-5.31993
-5.15659
-4.98353
-4.80054
-4.6074
-4.40393
-4.18996
-3.96532
-3.72989
-3.48356
-3.22624
-2.95782
-2.67834
-2.38785
-2.08646
-1.77431
-1.45161
-1.11861
-0.775677
-0.423156
-0.061266
0.309333
0.687877
1.07362
1.46562
1.86354
2.26684
2.67404
3.08381
3.49544
3.90818
4.32052
4.73124
5.13938
5.54365
5.94281
6.33575
6.72124
7.09822
7.46561
7.8224
8.16766
8.50053
8.82027
9.1262
9.41779
9.6946
9.9563
10.2027
10.4338
10.6494
10.8498
11.0352
11.206
11.3624
11.5052
11.6348
11.7518
11.8569
11.9507
12.0339
12.1071
12.171
12.2262
12.2735
12.3133
12.3463
12.3732
12.3943
12.4104
12.4218
12.4292
12.4328
12.4333
12.4304
12.4258
12.4136
12.4126
12.3464
-6.00669
-6.0126
-6.02212
-6.03155
-6.03951
-6.0463
-6.05235
-6.05793
-6.06327
-6.06855
-6.07391
-6.07946
-6.08528
-6.09143
-6.09796
-6.1049
-6.11227
-6.12009
-6.12836
-6.13709
-6.14629
-6.15596
-6.1661
-6.1767
-6.18778
-6.19933
-6.21134
-6.22382
-6.23678
-6.2502
-6.2641
-6.27847
-6.29331
-6.30861
-6.32439
-6.34063
-6.35734
-6.37451
-6.39212
-6.41019
-6.42868
-6.4476
-6.46693
-6.48664
-6.50672
-6.52715
-6.54789
-6.56892
-6.5902
-6.61169
-6.63335
-6.65512
-6.67697
-6.69882
-6.72063
-6.74232
-6.76382
-6.78506
-6.80596
-6.82644
-6.8464
-6.86575
-6.88439
-6.90222
-6.91913
-6.93501
-6.94975
-6.96322
-6.9753
-6.98585
-6.99474
-7.00184
-7.007
-7.01007
-7.01089
-7.0093
-7.00512
-6.99818
-6.9883
-6.97528
-6.9589
-6.93895
-6.91519
-6.88738
-6.85525
-6.81853
-6.77693
-6.73015
-6.67788
-6.61979
-6.55557
-6.48488
-6.40741
-6.32294
-6.2311
-6.13079
-6.02154
-5.90382
-5.77764
-5.64273
-5.49884
-5.34571
-5.18311
-5.01081
-4.82858
-4.63622
-4.43352
-4.2203
-3.99639
-3.76165
-3.51597
-3.25926
-2.99132
-2.71221
-2.42204
-2.12087
-1.80885
-1.48616
-1.15308
-0.81002
-0.457349
-0.0950906
0.276163
0.655454
1.04212
1.43531
1.83439
2.23878
2.64729
3.05871
3.4721
3.88652
4.30066
4.71331
5.12338
5.5296
5.93075
6.32565
6.7131
7.09198
7.46122
7.81979
8.16674
8.5012
8.82242
9.12971
9.42252
9.70042
9.96307
10.2103
10.442
10.6582
10.8591
11.0448
11.2158
11.3724
11.5152
11.6448
11.7617
11.8666
11.9601
12.0429
12.1157
12.1792
12.2339
12.2806
12.3198
12.3521
12.3781
12.3984
12.4135
12.4239
12.43
12.4323
12.4311
12.4261
12.4189
12.4032
12.3991
12.325
-6.01987
-6.02507
-6.03354
-6.04214
-6.04958
-6.05604
-6.06188
-6.06734
-6.07258
-6.07779
-6.08308
-6.08855
-6.09429
-6.10036
-6.10679
-6.11362
-6.12088
-6.12859
-6.13675
-6.14538
-6.15448
-6.16406
-6.17412
-6.18467
-6.1957
-6.20721
-6.21921
-6.23169
-6.24466
-6.25812
-6.27207
-6.2865
-6.30143
-6.31683
-6.33272
-6.34909
-6.36594
-6.38325
-6.40103
-6.41926
-6.43793
-6.45703
-6.47653
-6.49644
-6.51671
-6.53732
-6.55825
-6.57946
-6.60092
-6.62258
-6.6444
-6.66633
-6.68832
-6.71032
-6.73224
-6.75405
-6.77565
-6.79698
-6.81795
-6.83849
-6.8585
-6.87788
-6.89655
-6.91439
-6.93131
-6.94718
-6.96191
-6.97536
-6.98741
-6.99795
-7.00683
-7.01392
-7.01909
-7.02217
-7.02303
-7.02149
-7.0174
-7.01058
-7.00085
-6.98802
-6.97188
-6.95221
-6.92879
-6.90135
-6.86964
-6.83338
-6.79227
-6.74602
-6.6943
-6.63678
-6.57313
-6.50305
-6.42626
-6.34244
-6.25064
-6.15004
-6.04095
-5.92367
-5.79801
-5.66368
-5.5204
-5.36794
-5.20602
-5.03442
-4.85291
-4.66125
-4.45925
-4.24671
-4.02345
-3.78932
-3.54423
-3.28811
-3.02071
-2.74196
-2.45205
-2.15105
-1.83909
-1.51634
-1.18305
-0.83958
-0.486351
-0.123593
0.248269
0.628423
1.01617
1.41069
1.81127
2.21713
2.62723
3.04045
3.45576
3.87211
4.28825
4.70298
5.11512
5.5234
5.92661
6.32351
6.71292
7.09368
7.4647
7.82494
8.17345
8.50933
8.83183
9.14025
9.43405
9.71278
9.97612
10.2239
10.456
10.6724
10.8734
11.0592
11.2301
11.3866
11.5292
11.6584
11.7749
11.8793
11.9724
12.0546
12.1268
12.1895
12.2435
12.2894
12.3277
12.3592
12.3843
12.4036
12.4175
12.4267
12.4315
12.4321
12.4291
12.4219
12.4122
12.3932
12.3859
12.3051
-6.03404
-6.03849
-6.0458
-6.0534
-6.06011
-6.06606
-6.0715
-6.07664
-6.08163
-6.08662
-6.09172
-6.09701
-6.10259
-6.10849
-6.11477
-6.12146
-6.12859
-6.13618
-6.14423
-6.15277
-6.1618
-6.17132
-6.18134
-6.19186
-6.20289
-6.21442
-6.22645
-6.239
-6.25204
-6.2656
-6.27965
-6.29421
-6.30927
-6.32483
-6.34089
-6.35743
-6.37446
-6.39196
-6.40994
-6.42837
-6.44724
-6.46654
-6.48624
-6.50634
-6.5268
-6.5476
-6.5687
-6.59008
-6.61169
-6.63349
-6.65544
-6.67748
-6.69957
-6.72163
-6.74362
-6.76546
-6.78708
-6.80841
-6.82937
-6.84987
-6.86982
-6.88913
-6.90771
-6.92545
-6.94225
-6.958
-6.97258
-6.98589
-6.99779
-7.00818
-7.01691
-7.02386
-7.0289
-7.03188
-7.03263
-7.03102
-7.02688
-7.02006
-7.01036
-6.99761
-6.9816
-6.96211
-6.9389
-6.91174
-6.88035
-6.84445
-6.80375
-6.75793
-6.70666
-6.64962
-6.58649
-6.51701
-6.44081
-6.357
-6.26462
-6.16389
-6.05529
-5.93858
-5.81347
-5.67974
-5.53712
-5.38533
-5.22412
-5.05325
-4.87247
-4.68154
-4.48026
-4.26841
-4.04581
-3.8123
-3.56775
-3.31208
-3.04518
-2.76687
-2.47726
-2.17643
-1.8645
-1.54164
-1.20809
-0.864168
-0.510261
-0.146721
0.22599
0.607181
0.996153
1.39212
1.79431
2.20186
2.61376
3.02893
3.4463
3.86475
4.28304
4.69995
5.11427
5.5247
5.93
6.32893
6.72027
7.10285
7.47556
7.83736
8.18725
8.52438
8.84794
9.15727
9.4518
9.73109
9.99483
10.2428
10.475
10.6915
10.8923
11.0778
11.2484
11.4044
11.5464
11.6751
11.791
11.8947
11.9869
12.0684
12.1397
12.2016
12.2547
12.2996
12.3369
12.3673
12.3913
12.4094
12.4222
12.43
12.4333
12.4324
12.4275
12.4181
12.4058
12.3836
12.3733
12.2868
-6.04858
-6.05226
-6.0584
-6.06489
-6.07074
-6.07599
-6.08085
-6.08551
-6.09008
-6.0947
-6.09948
-6.10448
-6.1098
-6.11547
-6.12154
-6.12806
-6.13503
-6.14248
-6.15044
-6.15889
-6.16787
-6.17736
-6.18738
-6.19792
-6.20899
-6.22059
-6.23271
-6.24536
-6.25854
-6.27223
-6.28645
-6.30118
-6.31642
-6.33217
-6.34842
-6.36516
-6.3824
-6.4001
-6.41828
-6.43691
-6.45597
-6.47546
-6.49534
-6.5156
-6.53621
-6.55714
-6.57837
-6.59984
-6.62153
-6.64339
-6.66538
-6.68743
-6.7095
-6.73153
-6.75345
-6.7752
-6.79671
-6.8179
-6.8387
-6.85902
-6.87876
-6.89785
-6.91618
-6.93366
-6.95018
-6.96564
-6.97993
-6.99293
-7.00452
-7.0146
-7.02303
-7.02969
-7.03446
-7.0372
-7.03774
-7.03593
-7.03162
-7.02468
-7.01491
-7.00213
-6.98614
-6.96673
-6.94366
-6.91669
-6.88555
-6.84994
-6.80957
-6.76412
-6.71326
-6.65667
-6.59412
-6.5252
-6.44886
-6.36418
-6.27146
-6.17117
-6.06314
-5.94706
-5.82263
-5.68959
-5.54769
-5.39665
-5.23621
-5.06612
-4.88613
-4.696
-4.49549
-4.28439
-4.06251
-3.82967
-3.58571
-3.33053
-3.06403
-2.78608
-2.49674
-2.19605
-1.88412
-1.56112
-1.22728
-0.882884
-0.528302
-0.163932
0.209733
0.592057
0.982345
1.37983
1.78369
2.19304
2.60687
3.0241
3.44362
3.86427
4.28481
4.70399
5.12054
5.53317
5.94059
6.34153
6.73476
7.11909
7.49339
7.85658
8.2077
8.54586
8.87025
9.18022
9.47521
9.75478
10.0186
10.2666
10.4986
10.7147
10.9151
11.1
11.2699
11.4252
11.5665
11.6943
11.8093
11.9121
12.0034
12.0838
12.1541
12.2149
12.2669
12.3107
12.347
12.3762
12.399
12.416
12.4274
12.4338
12.4356
12.433
12.4261
12.4146
12.3997
12.3746
12.3614
12.2702
-6.06301
-6.06598
-6.07097
-6.07632
-6.08117
-6.08557
-6.08969
-6.09367
-6.09765
-6.10174
-6.10604
-6.11063
-6.11558
-6.12093
-6.12674
-6.13303
-6.13982
-6.14714
-6.15499
-6.16338
-6.17233
-6.18182
-6.19187
-6.20248
-6.21363
-6.22533
-6.23758
-6.25038
-6.26371
-6.27758
-6.29197
-6.30689
-6.32232
-6.33827
-6.35471
-6.37164
-6.38906
-6.40694
-6.42527
-6.44405
-6.46324
-6.48284
-6.50281
-6.52314
-6.5438
-6.56475
-6.58597
-6.60741
-6.62904
-6.65081
-6.67269
-6.6946
-6.7165
-6.73831
-6.76
-6.78148
-6.8027
-6.82357
-6.84403
-6.86397
-6.88333
-6.90201
-6.91992
-6.93695
-6.95302
-6.96801
-6.98183
-6.99435
-7.00547
-7.01508
-7.02305
-7.02927
-7.03361
-7.03594
-7.03613
-7.034
-7.02943
-7.02226
-7.01232
-6.99942
-6.98338
-6.96398
-6.94098
-6.91414
-6.88318
-6.8478
-6.80775
-6.76265
-6.71225
-6.65617
-6.59406
-6.52467
-6.44717
-6.36223
-6.27002
-6.17036
-6.06297
-5.94758
-5.82389
-5.69163
-5.55054
-5.40033
-5.24075
-5.07153
-4.89241
-4.70314
-4.50348
-4.2932
-4.07209
-3.83997
-3.59667
-3.34206
-3.07603
-2.79849
-2.50944
-2.20893
-1.89704
-1.57393
-1.23982
-0.894982
-0.539776
-0.174611
0.200009
0.583469
0.975079
1.37407
1.77961
2.19079
2.60658
3.0259
3.4476
3.87049
4.29332
4.7148
5.13361
5.54844
5.95797
6.36089
6.75596
7.14194
7.51769
7.88214
8.23429
8.57325
8.89824
9.20859
9.50374
9.78329
10.0469
10.2945
10.526
10.7415
10.9411
11.1252
11.2942
11.4486
11.5888
11.7155
11.8294
11.9311
12.0212
12.1005
12.1696
12.2293
12.2801
12.3227
12.3577
12.3857
12.4073
12.4229
12.433
12.438
12.4383
12.4339
12.4252
12.4115
12.3942
12.3664
12.3501
12.2554
-6.07711
-6.07944
-6.08338
-6.08756
-6.09131
-6.09468
-6.09784
-6.10093
-6.1041
-6.10745
-6.1111
-6.11511
-6.11957
-6.12451
-6.12997
-6.13599
-6.14257
-6.14972
-6.15747
-6.16581
-6.17473
-6.18425
-6.19435
-6.20503
-6.21629
-6.22812
-6.24051
-6.25345
-6.26695
-6.28098
-6.29554
-6.31062
-6.3262
-6.34229
-6.35886
-6.37591
-6.39342
-6.41137
-6.42975
-6.44855
-6.46774
-6.48729
-6.5072
-6.52743
-6.54795
-6.56874
-6.58976
-6.61096
-6.63232
-6.65378
-6.67531
-6.69685
-6.71834
-6.73972
-6.76094
-6.78194
-6.80264
-6.82297
-6.84286
-6.86222
-6.88098
-6.89904
-6.91632
-6.93271
-6.94814
-6.96248
-6.97565
-6.98753
-6.99802
-7.007
-7.01437
-7.02001
-7.02379
-7.0256
-7.0253
-7.02275
-7.01781
-7.01033
-7.00013
-6.98706
-6.97091
-6.95146
-6.92849
-6.90175
-6.87094
-6.83579
-6.79612
-6.75146
-6.70161
-6.64568
-6.58221
-6.51157
-6.43426
-6.34999
-6.25853
-6.15963
-6.05303
-5.93846
-5.81563
-5.68427
-5.54411
-5.39485
-5.23624
-5.06799
-4.88984
-4.70153
-4.50281
-4.29344
-4.0732
-3.8419
-3.59935
-3.34541
-3.07995
-2.8029
-2.51424
-2.21399
-1.90223
-1.57911
-1.24482
-0.899648
-0.543926
-0.178072
0.197408
0.581911
0.974753
1.37516
1.7823
2.19522