/*--------------------------------*- C++ -*----------------------------------*\
| =========                 |                                                 |
| \\      /  F ield         | OpenFOAM: The Open Source CFD Toolbox           |
|  \\    /   O peration     | Version:  2.2.x                                 |
|   \\  /    A nd           | Web:      www.OpenFOAM.org                      |
|    \\/     M anipulation  |                                                 |
\*---------------------------------------------------------------------------*/
FoamFile
{
    version     2.0;
    format      ascii;
    class       surfaceScalarField;
    location    "550";
    object      phi;
}
// * * * * * * * * * * * * * * * * * * * * * * * * * * * * * * * * * * * * * //

dimensions      [0 3 -1 0 0 0 0];

internalField   nonuniform List<scalar> 
24170
(
3.08816e-06
4.57356e-08
3.0142e-06
7.39599e-08
2.95204e-06
6.21541e-08
2.88975e-06
6.22909e-08
2.83018e-06
5.95757e-08
2.77474e-06
5.54423e-08
2.72346e-06
5.12748e-08
2.67608e-06
4.73813e-08
2.63229e-06
4.37894e-08
2.5918e-06
4.04892e-08
2.55434e-06
3.74619e-08
2.51965e-06
3.46843e-08
2.48752e-06
3.21342e-08
2.45772e-06
2.97999e-08
2.43001e-06
2.77095e-08
2.40385e-06
2.61602e-08
2.37701e-06
2.6839e-08
3.04523e-08
2.34656e-06
3.46858e-06
3.35989e-08
3.45792e-06
8.46195e-08
3.4434e-06
7.66782e-08
3.42858e-06
7.71089e-08
3.41239e-06
7.57636e-08
3.39526e-06
7.25801e-08
3.37749e-06
6.904e-08
3.35934e-06
6.55316e-08
3.34103e-06
6.20994e-08
3.32276e-06
5.87613e-08
3.30469e-06
5.55339e-08
3.28694e-06
5.24273e-08
3.26963e-06
4.94487e-08
3.25281e-06
4.66157e-08
3.23653e-06
4.39921e-08
3.22089e-06
4.18049e-08
3.20736e-06
4.03657e-08
3.78683e-08
3.19994e-06
3.80922e-06
3.65704e-08
3.81785e-06
7.59889e-08
3.82009e-06
7.44443e-08
3.82216e-06
7.50369e-08
3.82296e-06
7.49655e-08
3.82243e-06
7.31058e-08
3.82092e-06
7.0557e-08
3.81865e-06
6.78e-08
3.8158e-06
6.49438e-08
3.81252e-06
6.20408e-08
3.80892e-06
5.91343e-08
3.8051e-06
5.62547e-08
3.80112e-06
5.34238e-08
3.79707e-06
5.06657e-08
3.79304e-06
4.80247e-08
3.78927e-06
4.5574e-08
3.78644e-06
4.31952e-08
3.93509e-08
3.78496e-06
4.20602e-06
3.51139e-08
4.21523e-06
6.67756e-08
4.21957e-06
7.0106e-08
4.22321e-06
7.1399e-08
4.22619e-06
7.198e-08
4.22846e-06
7.08389e-08
4.23023e-06
6.87875e-08
4.23165e-06
6.63779e-08
4.23281e-06
6.3788e-08
4.23375e-06
6.10951e-08
4.23453e-06
5.8354e-08
4.23519e-06
5.56008e-08
4.23575e-06
5.28582e-08
4.23628e-06
5.01415e-08
4.23684e-06
4.74599e-08
4.23763e-06
4.47827e-08
4.23896e-06
4.18674e-08
3.77267e-08
4.24058e-06
4.64072e-06
3.17026e-08
4.64866e-06
5.88373e-08
4.65361e-06
6.51522e-08
4.65778e-06
6.72298e-08
4.6616e-06
6.81634e-08
4.66496e-06
6.74773e-08
4.66795e-06
6.57911e-08
4.67068e-06
6.36503e-08
4.6732e-06
6.1271e-08
4.67555e-06
5.87477e-08
4.67776e-06
5.61412e-08
4.67987e-06
5.34906e-08
4.68191e-06
5.08173e-08
4.68393e-06
4.81281e-08
4.68598e-06
4.5409e-08
4.68817e-06
4.25921e-08
4.69056e-06
3.94705e-08
3.55687e-08
4.69272e-06
5.11835e-06
2.79522e-08
5.12555e-06
5.16358e-08
5.13106e-06
5.96368e-08
5.13579e-06
6.25057e-08
5.14017e-06
6.37813e-08
5.14414e-06
6.35021e-08
5.14776e-06
6.21717e-08
5.15112e-06
6.02981e-08
5.15426e-06
5.81238e-08
5.15725e-06
5.57617e-08
5.16011e-06
5.32809e-08
5.16288e-06
5.07251e-08
5.16558e-06
4.81162e-08
5.16825e-06
4.54568e-08
5.17093e-06
4.27245e-08
5.17367e-06
3.98518e-08
5.17645e-06
3.66966e-08
3.30502e-08
5.17897e-06
5.64454e-06
2.44172e-08
5.65123e-06
4.49516e-08
5.65709e-06
5.37713e-08
5.66225e-06
5.73435e-08
5.66707e-06
5.89657e-08
5.67151e-06
5.90587e-08
5.67562e-06
5.80696e-08
5.67945e-06
5.64624e-08
5.68308e-06
5.44952e-08
5.68654e-06
5.22979e-08
5.68988e-06
4.99486e-08
5.69311e-06
4.74955e-08
5.69626e-06
4.49632e-08
5.69936e-06
4.23552e-08
5.70243e-06
3.96526e-08
5.70548e-06
3.6807e-08
5.70844e-06
3.3741e-08
3.03936e-08
5.71109e-06
4.40852e-06
2.20055e-08
4.41294e-06
4.05328e-08
4.41725e-06
4.94604e-08
4.42117e-06
5.34309e-08
4.42484e-06
5.52914e-08
4.42828e-06
5.5616e-08
4.4315e-06
5.48523e-08
4.43453e-06
5.34341e-08
4.4374e-06
5.16194e-08
4.44016e-06
4.95468e-08
4.4428e-06
4.73002e-08
4.44537e-06
4.49314e-08
4.44786e-06
4.24677e-08
4.4503e-06
3.99161e-08
4.45269e-06
3.72641e-08
4.45502e-06
3.44803e-08
4.45724e-06
3.15223e-08
2.83909e-08
4.45924e-06
5.14232e-06
1.95476e-08
5.14681e-06
3.60347e-08
5.15144e-06
4.48311e-08
5.1558e-06
4.90742e-08
5.15996e-06
5.11321e-08
5.1639e-06
5.16703e-08
5.16763e-06
5.1128e-08
5.17116e-06
4.99053e-08
5.17452e-06
4.82556e-08
5.17774e-06
4.63228e-08
5.18085e-06
4.41955e-08
5.18385e-06
4.19293e-08
5.18676e-06
3.95552e-08
5.1896e-06
3.70855e-08
5.19234e-06
3.45169e-08
5.19499e-06
3.18359e-08
5.19748e-06
2.90285e-08
2.61327e-08
5.19974e-06
5.99826e-06
1.70755e-08
6.00278e-06
3.15209e-08
6.00767e-06
3.99433e-08
6.01244e-06
4.43056e-08
6.01707e-06
4.64948e-08
6.02153e-06
4.72098e-08
6.02579e-06
4.68712e-08
6.02985e-06
4.58413e-08
6.03375e-06
4.43631e-08
6.03749e-06
4.25826e-08
6.04109e-06
4.05914e-08
6.04457e-06
3.84484e-08
6.04794e-06
3.6189e-08
6.05119e-06
3.38318e-08
6.05433e-06
3.13841e-08
6.05731e-06
2.88482e-08
6.06011e-06
2.62315e-08
2.35877e-08
6.06266e-06
6.99672e-06
1.46199e-08
7.00119e-06
2.7051e-08
7.00628e-06
3.48533e-08
7.01142e-06
3.91626e-08
7.01652e-06
4.13997e-08
7.02149e-06
4.22375e-08
7.02629e-06
4.20708e-08
7.03091e-06
4.12207e-08
7.03536e-06
3.9914e-08
7.03965e-06
3.82947e-08
7.04379e-06
3.64554e-08
7.04778e-06
3.44574e-08
7.05163e-06
3.23404e-08
7.05533e-06
3.01298e-08
7.05887e-06
2.78423e-08
7.06223e-06
2.54927e-08
7.06536e-06
2.31016e-08
2.07255e-08
7.06822e-06
8.16143e-06
1.22078e-08
8.16582e-06
2.26614e-08
8.17105e-06
2.96188e-08
8.17653e-06
3.36874e-08
8.18205e-06
3.58705e-08
8.18753e-06
3.6763e-08
8.19288e-06
3.67239e-08
8.19806e-06
3.60317e-08
8.20309e-06
3.48911e-08
8.20794e-06
3.34389e-08
8.21263e-06
3.17666e-08
8.21715e-06
2.99363e-08
8.2215e-06
2.79913e-08
8.22567e-06
2.59624e-08
8.22964e-06
2.38736e-08
8.23338e-06
2.17475e-08
8.23688e-06
1.96108e-08
1.75159e-08
8.24009e-06
9.52008e-06
9.85616e-09
9.52437e-06
1.83664e-08
9.5297e-06
2.42885e-08
9.53547e-06
2.79218e-08
9.54141e-06
2.99305e-08
9.54738e-06
3.0796e-08
9.55327e-06
3.0829e-08
9.55904e-06
3.02644e-08
9.56465e-06
2.92793e-08
9.57009e-06
2.79984e-08
9.57535e-06
2.65081e-08
9.58041e-06
2.48694e-08
9.58528e-06
2.31269e-08
9.58993e-06
2.13145e-08
9.59434e-06
1.94603e-08
9.5985e-06
1.75902e-08
9.60238e-06
1.57318e-08
1.39299e-08
9.60596e-06
1.1105e-05
7.56787e-09
1.11092e-05
1.41567e-08
1.11146e-05
1.88891e-08
1.11206e-05
2.18987e-08
1.1127e-05
2.35977e-08
1.11334e-05
2.43417e-08
1.11399e-05
2.43813e-08
1.11462e-05
2.39057e-08
1.11524e-05
2.30603e-08
1.11585e-05
2.1952e-08
1.11643e-05
2.06578e-08
1.117e-05
1.92344e-08
1.11754e-05
1.77246e-08
1.11805e-05
1.6162e-08
1.11854e-05
1.4575e-08
1.119e-05
1.29891e-08
1.11943e-05
1.14292e-08
9.93175e-09
1.11983e-05
1.29539e-05
5.32709e-09
1.2958e-05
9.99634e-09
1.29635e-05
1.34122e-08
1.29698e-05
1.5625e-08
1.29765e-05
1.68724e-08
1.29835e-05
1.73914e-08
1.29905e-05
1.73646e-08
1.29974e-05
1.69327e-08
1.30043e-05
1.62058e-08
1.3011e-05
1.52678e-08
1.30175e-05
1.41818e-08
1.30237e-05
1.29955e-08
1.30297e-05
1.1746e-08
1.30354e-05
1.04632e-08
1.30408e-05
9.17221e-09
1.30459e-05
7.89497e-09
1.30506e-05
6.65173e-09
5.47101e-09
1.30551e-05
1.51107e-05
3.0941e-09
1.51149e-05
5.81232e-09
1.51205e-05
7.79543e-09
1.51271e-05
9.05515e-09
1.51342e-05
9.71207e-09
1.51417e-05
9.90053e-09
1.51493e-05
9.73225e-09
1.5157e-05
9.2963e-09
1.51645e-05
8.66421e-09
1.51719e-05
7.89223e-09
1.5179e-05
7.02418e-09
1.51859e-05
6.09432e-09
1.51926e-05
5.13005e-09
1.51989e-05
4.15383e-09
1.52049e-05
3.18446e-09
1.52105e-05
2.23807e-09
1.52158e-05
1.32914e-09
4.78763e-10
1.52208e-05
1.76267e-05
7.97044e-10
1.76311e-05
1.47183e-09
1.7637e-05
1.89034e-09
1.7644e-05
2.04855e-09
1.76517e-05
1.98511e-09
1.76599e-05
1.74485e-09
1.76682e-05
1.36718e-09
1.76766e-05
8.85842e-10
1.7685e-05
3.2966e-10
1.76932e-05
-2.77387e-10
1.77011e-05
-9.15598e-10
1.77088e-05
-1.56864e-09
1.77161e-05
-2.22272e-09
1.77231e-05
-2.86609e-09
1.77298e-05
-3.48863e-09
1.77361e-05
-4.08164e-09
1.77421e-05
-4.63714e-09
-5.14103e-09
1.77477e-05
1.78284e-05
-1.37968e-09
1.78325e-05
-2.66132e-09
1.78382e-05
-3.76865e-09
1.78449e-05
-4.70462e-09
1.78524e-05
-5.49364e-09
1.78603e-05
-6.1719e-09
1.78684e-05
-6.76945e-09
1.78766e-05
-7.30598e-09
1.78848e-05
-7.7946e-09
1.78927e-05
-8.24403e-09
1.79005e-05
-8.65949e-09
1.79079e-05
-9.0436e-09
1.79151e-05
-9.39709e-09
1.7922e-05
-9.71954e-09
1.79285e-05
-1.00098e-08
1.79347e-05
-1.02664e-08
1.79405e-05
-1.04872e-08
-1.06642e-08
1.79461e-05
1.58833e-05
-3.32731e-09
1.5887e-05
-6.36841e-09
1.58921e-05
-8.84761e-09
1.58981e-05
-1.07466e-08
1.59048e-05
-1.21555e-08
1.59118e-05
-1.31971e-08
1.5919e-05
-1.39672e-08
1.59262e-05
-1.4533e-08
1.59334e-05
-1.4945e-08
1.59404e-05
-1.52415e-08
1.59472e-05
-1.54502e-08
1.59537e-05
-1.55904e-08
1.596e-05
-1.56754e-08
1.5966e-05
-1.57149e-08
1.59717e-05
-1.57154e-08
1.59771e-05
-1.56814e-08
1.59822e-05
-1.56155e-08
-1.5514e-08
1.59871e-05
1.41505e-05
-5.15129e-09
1.4154e-05
-9.87108e-09
1.41588e-05
-1.36384e-08
1.41644e-05
-1.63819e-08
1.41706e-05
-1.82953e-08
1.4177e-05
-1.96131e-08
1.41835e-05
-2.0494e-08
1.419e-05
-2.10473e-08
1.41964e-05
-2.13586e-08
1.42027e-05
-2.14931e-08
1.42087e-05
-2.14975e-08
1.42145e-05
-2.14052e-08
1.42201e-05
-2.12403e-08
1.42254e-05
-2.10202e-08
1.42304e-05
-2.07579e-08
1.42352e-05
-2.04628e-08
1.42398e-05
-2.01411e-08
-1.97929e-08
1.4244e-05
1.26068e-05
-6.89039e-09
1.26102e-05
-1.33122e-08
1.26149e-05
-1.83339e-08
1.26203e-05
-2.17919e-08
1.26261e-05
-2.40833e-08
1.26321e-05
-2.55864e-08
1.26381e-05
-2.65112e-08
1.2644e-05
-2.7004e-08
1.26499e-05
-2.71849e-08
1.26555e-05
-2.7143e-08
1.2661e-05
-2.69405e-08
1.26662e-05
-2.66216e-08
1.26712e-05
-2.62187e-08
1.26759e-05
-2.5756e-08
1.26804e-05
-2.52515e-08
1.26846e-05
-2.47192e-08
1.26887e-05
-2.41691e-08
-2.3605e-08
1.26925e-05
1.12314e-05
-8.51439e-09
1.12349e-05
-1.68031e-08
1.12397e-05
-2.30697e-08
1.12449e-05
-2.70674e-08
1.12504e-05
-2.96001e-08
1.12561e-05
-3.12005e-08
1.12616e-05
-3.21002e-08
1.12671e-05
-3.24816e-08
1.12724e-05
-3.25007e-08
1.12776e-05
-3.22665e-08
1.12825e-05
-3.18521e-08
1.12872e-05
-3.13096e-08
1.12916e-05
-3.06771e-08
1.12958e-05
-2.99832e-08
1.12998e-05
-2.92496e-08
1.13036e-05
-2.8493e-08
1.13072e-05
-2.77261e-08
-2.69557e-08
1.13105e-05
1.0006e-05
-9.91093e-09
1.00097e-05
-2.0465e-08
1.00146e-05
-2.79492e-08
1.00197e-05
-3.22378e-08
1.0025e-05
-3.48743e-08
1.00303e-05
-3.64897e-08
1.00355e-05
-3.72949e-08
1.00405e-05
-3.75169e-08
1.00454e-05
-3.73468e-08
1.005e-05
-3.69069e-08
1.00544e-05
-3.62767e-08
1.00586e-05
-3.55132e-08
1.00626e-05
-3.46586e-08
1.00664e-05
-3.37443e-08
1.00699e-05
-3.27947e-08
1.00733e-05
-3.18302e-08
1.00764e-05
-3.08692e-08
-2.99273e-08
1.00794e-05
8.91406e-06
-1.08738e-08
8.91803e-06
-2.44288e-08
8.92306e-06
-3.29848e-08
8.92808e-06
-3.72515e-08
8.93308e-06
-3.9881e-08
8.93802e-06
-4.14282e-08
8.94279e-06
-4.20653e-08
8.94736e-06
-4.20853e-08
8.95172e-06
-4.17082e-08
8.95587e-06
-4.10587e-08
8.95981e-06
-4.02174e-08
8.96354e-06
-3.92432e-08
8.96707e-06
-3.81796e-08
8.97038e-06
-3.7058e-08
8.97349e-06
-3.59028e-08
8.97639e-06
-3.47341e-08
8.97909e-06
-3.35704e-08
-3.24275e-08
8.98159e-06
7.94096e-06
-1.11682e-08
7.94547e-06
-2.89353e-08
7.95052e-06
-3.803e-08
7.95523e-06
-4.1969e-08
7.95993e-06
-4.45752e-08
7.96449e-06
-4.59918e-08
7.96882e-06
-4.63947e-08
7.97291e-06
-4.61759e-08
7.97678e-06
-4.55746e-08
7.98043e-06
-4.47103e-08
7.98387e-06
-4.36613e-08
7.98712e-06
-4.24861e-08
7.99016e-06
-4.12269e-08
7.99302e-06
-3.99139e-08
7.99569e-06
-3.85699e-08
7.99817e-06
-3.72156e-08
8.00048e-06
-3.58782e-08
-3.46021e-08
8.00265e-06
7.07291e-06
-9.74756e-09
7.07858e-06
-3.46066e-08
7.08338e-06
-4.28271e-08
7.08758e-06
-4.61655e-08
7.09181e-06
-4.88112e-08
7.09589e-06
-5.00701e-08
7.09972e-06
-5.02259e-08
7.10332e-06
-4.97751e-08
7.1067e-06
-4.89558e-08
7.10987e-06
-4.788e-08
7.11284e-06
-4.66262e-08
7.11561e-06
-4.52539e-08
7.11818e-06
-4.38045e-08
7.12058e-06
-4.23058e-08
7.12278e-06
-4.07753e-08
7.12479e-06
-3.92234e-08
7.12657e-06
-3.76596e-08
-3.60902e-08
7.12806e-06
6.29709e-06
-4.3206e-09
6.30526e-06
-4.27851e-08
6.31009e-06
-4.7657e-08
6.31411e-06
-5.0176e-08
6.31792e-06
-5.26218e-08
6.32128e-06
-5.343e-08
6.32425e-06
-5.32015e-08
6.32695e-06
-5.24722e-08
6.32942e-06
-5.14225e-08
6.33167e-06
-5.01379e-08
6.33374e-06
-4.86899e-08
6.33562e-06
-4.71349e-08
6.33733e-06
-4.55123e-08
6.33887e-06
-4.38475e-08
6.34025e-06
-4.21537e-08
6.34146e-06
-4.04323e-08
6.34248e-06
-3.86871e-08
-3.69266e-08
6.34332e-06
5.60106e-06
9.51854e-09
5.61058e-06
-5.23044e-08
5.61458e-06
-5.16537e-08
5.61889e-06
-5.44882e-08
5.62273e-06
-5.64631e-08
5.62556e-06
-5.62616e-08
5.62755e-06
-5.51852e-08
5.62887e-06
-5.37974e-08
5.62967e-06
-5.22143e-08
5.63002e-06
-5.0489e-08
5.63e-06
-4.86734e-08
5.62967e-06
-4.68091e-08
5.62909e-06
-4.49249e-08
5.62828e-06
-4.30382e-08
5.62728e-06
-4.11531e-08
5.6261e-06
-3.92506e-08
5.62468e-06
-3.7273e-08
-3.49609e-08
5.62271e-06
5.00884e-06
2.9831e-09
5.00511e-06
-4.85665e-08
4.99662e-06
-4.31719e-08
4.98994e-06
-4.77992e-08
4.98309e-06
-4.96146e-08
4.97569e-06
-4.88609e-08
4.96769e-06
-4.7192e-08
4.9591e-06
-4.52079e-08
4.94997e-06
-4.30828e-08
4.94039e-06
-4.09062e-08
4.93046e-06
-3.87399e-08
4.92027e-06
-3.6623e-08
4.90992e-06
-3.4578e-08
4.8995e-06
-3.26155e-08
4.88908e-06
-3.07344e-08
4.87875e-06
-2.8914e-08
4.86856e-06
-2.70874e-08
-2.48202e-08
4.85842e-06
4.45953e-06
4.41097e-06
4.36779e-06
4.32e-06
4.27038e-06
4.22152e-06
4.17433e-06
4.12912e-06
4.08604e-06
4.04513e-06
4.00639e-06
3.96977e-06
3.93519e-06
3.90257e-06
3.87184e-06
3.84293e-06
3.81584e-06
3.79102e-06
1.88767e-08
-1.88769e-08
3.33446e-08
-1.44655e-08
3.86766e-08
-5.33091e-09
3.45129e-08
4.16447e-09
2.18244e-08
1.26887e-08
2.26182e-09
1.95629e-08
-2.24603e-08
2.47209e-08
-5.05729e-08
2.81124e-08
-8.08955e-08
3.03222e-08
-1.12731e-07
3.18355e-08
-1.45657e-07
3.29273e-08
-1.79399e-07
3.37428e-08
-2.13756e-07
3.43584e-08
-2.4857e-07
3.48163e-08
-2.83712e-07
3.51434e-08
-3.1907e-07
3.53597e-08
-3.5455e-07
3.54821e-08
-3.90075e-07
3.55259e-08
-4.25579e-07
3.55055e-08
-4.61013e-07
3.54336e-08
-4.96335e-07
3.5322e-08
-5.31516e-07
3.51812e-08
-5.66537e-07
3.50202e-08
-6.01384e-07
3.48468e-08
-6.36053e-07
3.46677e-08
-6.70541e-07
3.44883e-08
-7.04855e-07
3.4313e-08
-7.39001e-07
3.41457e-08
-7.72991e-07
3.39895e-08
-8.06838e-07
3.38467e-08
-8.40557e-07
3.37194e-08
-8.74167e-07
3.36105e-08
-9.07693e-07
3.35263e-08
-9.41172e-07
3.34795e-08
-9.74646e-07
3.34738e-08
-1.00815e-06
3.34997e-08
-1.0417e-06
3.35513e-08
-1.07532e-06
3.36243e-08
-1.10904e-06
3.37151e-08
-1.14286e-06
3.38208e-08
-1.1768e-06
3.39388e-08
-1.21086e-06
3.40667e-08
-1.24507e-06
3.42021e-08
-1.27941e-06
3.43427e-08
-1.3139e-06
3.44864e-08
-1.34853e-06
3.4631e-08
-1.3833e-06
3.47745e-08
-1.41822e-06
3.49149e-08
-1.45327e-06
3.50503e-08
-1.48845e-06
3.51786e-08
-1.52375e-06
3.52982e-08
-1.55915e-06
3.54069e-08
-1.59466e-06
3.55032e-08
-1.63024e-06
3.55854e-08
-1.66589e-06
3.56519e-08
-1.7016e-06
3.57013e-08
-1.73733e-06
3.57322e-08
-1.77307e-06
3.57435e-08
-1.8088e-06
3.57336e-08
-1.8445e-06
3.57013e-08
-1.88015e-06
3.56452e-08
-1.91571e-06
3.55642e-08
-1.95117e-06
3.5457e-08
-1.98649e-06
3.53226e-08
-2.02165e-06
3.51602e-08
-2.05662e-06
3.49687e-08
-2.09136e-06
3.47471e-08
-2.12586e-06
3.44943e-08
-2.16007e-06
3.4209e-08
-2.19396e-06
3.38898e-08
-2.22749e-06
3.35357e-08
-2.26064e-06
3.31454e-08
-2.29336e-06
3.27179e-08
-2.32561e-06
3.22517e-08
-2.35735e-06
3.17454e-08
-2.38855e-06
3.11975e-08
-2.41916e-06
3.06062e-08
-2.44913e-06
2.99698e-08
-2.47842e-06
2.92866e-08
-2.50697e-06
2.85548e-08
-2.53474e-06
2.77724e-08
-2.56168e-06
2.69373e-08
-2.58773e-06
2.60475e-08
-2.61283e-06
2.51011e-08
-2.63692e-06
2.40963e-08
-2.65995e-06
2.30313e-08
-2.68186e-06
2.19044e-08
-2.70257e-06
2.0714e-08
-2.72203e-06
1.94588e-08
-2.74017e-06
1.8138e-08
-2.75692e-06
1.67512e-08
-2.77222e-06
1.5298e-08
-2.786e-06
1.37781e-08
-2.79819e-06
1.21912e-08
-2.80873e-06
1.05376e-08
-2.81754e-06
8.81794e-09
-2.82457e-06
7.03222e-09
-2.82975e-06
5.17925e-09
-2.83301e-06
3.25648e-09
-2.83427e-06
1.26042e-09
-2.83347e-06
-8.02286e-10
-2.83056e-06
-2.9088e-09
-2.82551e-06
-5.05294e-09
-2.81826e-06
-7.24562e-09
-2.80876e-06
-9.49152e-09
-2.79697e-06
-1.17933e-08
-2.78282e-06
-1.41521e-08
-2.76625e-06
-1.65679e-08
-2.74721e-06
-1.90405e-08
-2.72564e-06
-2.15701e-08
-2.70148e-06
-2.41565e-08
-2.67468e-06
-2.67976e-08
-2.64519e-06
-2.94899e-08
-2.61296e-06
-3.22303e-08
-2.57795e-06
-3.50155e-08
-2.54011e-06
-3.78414e-08
-2.49941e-06
-4.07018e-08
-2.45582e-06
-4.35903e-08
-2.40931e-06
-4.65011e-08
-2.35989e-06
-4.94271e-08
-2.30753e-06
-5.23594e-08
-2.25224e-06
-5.52871e-08
-2.19404e-06
-5.81996e-08
-2.13295e-06
-6.10866e-08
-2.06901e-06
-6.39371e-08
-2.00227e-06
-6.67381e-08
-1.9328e-06
-6.94752e-08
-1.86066e-06
-7.21337e-08
-1.78597e-06
-7.46999e-08
-1.70881e-06
-7.71593e-08
-1.62931e-06
-7.94965e-08
-1.54762e-06
-8.1695e-08
-1.46388e-06
-8.37388e-08
-1.37827e-06
-8.56165e-08
-1.29096e-06
-8.73131e-08
-1.20215e-06
-8.88086e-08
-1.11205e-06
-9.00998e-08
-1.02088e-06
-9.11722e-08
-9.28877e-07
-9.20087e-08
-8.36266e-07
-9.26097e-08
-7.43307e-07
-9.29584e-08
-6.50233e-07
-9.3073e-08
-5.57301e-07
-9.29329e-08
-4.64744e-07
-9.25588e-08
-3.72773e-07
-9.19734e-08
-2.81603e-07
-9.1167e-08
-1.91453e-07
-9.01457e-08
-1.02279e-07
-8.91739e-08
-1.40975e-08
-8.81847e-08
7.19041e-08
-8.60034e-08
1.54855e-07
-8.29533e-08
2.34766e-07
-7.99149e-08
3.11669e-07
-7.68983e-08
3.85543e-07
-7.38671e-08
4.56344e-07
-7.08e-08
5.24038e-07
-6.76915e-08
5.88581e-07
-6.45386e-08
6.4994e-07
-6.13559e-08
7.08098e-07
-5.81582e-08
7.63045e-07
-5.49494e-08
8.14796e-07
-5.17526e-08
8.63362e-07
-4.85744e-08
9.08786e-07
-4.54241e-08
9.51114e-07
-4.2324e-08
9.90401e-07
-3.92825e-08
1.02672e-06
-3.63098e-08
1.06015e-06
-3.34204e-08
1.09076e-06
-3.06125e-08
1.11865e-06
-2.78898e-08
1.14389e-06
-2.52539e-08
1.16658e-06
-2.26916e-08
1.18676e-06
-2.01895e-08
1.20447e-06
-1.77132e-08
1.21964e-06
-1.51747e-08
1.23208e-06
-1.24424e-08
1.24123e-06
-9.14619e-09
1.24594e-06
-4.70558e-09
1.24269e-06
3.24981e-09
1.22374e-06
1.89591e-08
6.59769e-08
1.15776e-06
4.00943e-09
-2.28849e-08
-1.5655e-09
-8.89112e-09
-1.33758e-08
6.47961e-09
-2.91042e-08
1.98935e-08
-4.77087e-08
3.12936e-08
-6.88422e-08
4.06971e-08
-9.22368e-08
4.81163e-08
-1.17832e-07
5.3709e-08
-1.45365e-07
5.78556e-08
-1.74455e-07
6.09279e-08
-2.04744e-07
6.3218e-08
-2.35932e-07
6.49328e-08
-2.67784e-07
6.62119e-08
-3.00116e-07
6.71504e-08
-3.32785e-07
6.78155e-08
-3.65681e-07
6.82576e-08
-3.98714e-07
6.8517e-08
-4.31815e-07
6.86275e-08
-4.64926e-07
6.86182e-08
-4.98007e-07
6.85147e-08
-5.31024e-07
6.83395e-08
-5.63956e-07
6.81123e-08
-5.96787e-07
6.78503e-08
-6.2951e-07
6.75684e-08
-6.62122e-07
6.72793e-08
-6.94629e-07
6.69936e-08
-7.27037e-07
6.67203e-08
-7.5936e-07
6.64669e-08
-7.9161e-07
6.62393e-08
-8.23807e-07
6.60428e-08
-8.55969e-07
6.58814e-08
-8.88118e-07
6.57595e-08
-9.20273e-07
6.5682e-08
-9.52447e-07
6.56535e-08
-9.84647e-07
6.56736e-08
-1.01689e-06
6.57377e-08
-1.04918e-06
6.58409e-08
-1.08153e-06
6.59783e-08
-1.11396e-06
6.61454e-08
-1.14648e-06
6.63376e-08
-1.17909e-06
6.65507e-08
-1.21181e-06
6.67804e-08
-1.24463e-06
6.70225e-08
-1.27756e-06
6.7273e-08
-1.3106e-06
6.75276e-08
-1.34375e-06
6.77826e-08
-1.37701e-06
6.80341e-08
-1.41038e-06
6.82782e-08
-1.44384e-06
6.85112e-08
-1.47739e-06
6.87295e-08
-1.51102e-06
6.89296e-08
-1.54472e-06
6.9108e-08
-1.57848e-06
6.92614e-08
-1.61228e-06
6.93868e-08
-1.64611e-06
6.94811e-08
-1.67995e-06
6.95415e-08
-1.71378e-06
6.95654e-08
-1.74759e-06
6.95501e-08
-1.78135e-06
6.94931e-08
-1.81504e-06
6.93918e-08
-1.84864e-06
6.92438e-08
-1.88212e-06
6.9047e-08
-1.91546e-06
6.87992e-08
-1.94863e-06
6.84984e-08
-1.98162e-06
6.81427e-08
-2.01438e-06
6.77298e-08
-2.04689e-06
6.72578e-08
-2.07911e-06
6.67242e-08
-2.11103e-06
6.61267e-08
-2.14261e-06
6.54629e-08
-2.1738e-06
6.47306e-08
-2.20458e-06
6.39273e-08
-2.23492e-06
6.30506e-08
-2.26476e-06
6.20977e-08
-2.29408e-06
6.10655e-08
-2.32284e-06
5.99509e-08
-2.35098e-06
5.87506e-08
-2.37848e-06
5.74608e-08
-2.40527e-06
5.60781e-08
-2.43131e-06
5.45985e-08
-2.45656e-06
5.3018e-08
-2.48095e-06
5.13322e-08
-2.50444e-06
4.95372e-08
-2.52697e-06
4.76289e-08
-2.54847e-06
4.56035e-08
-2.5689e-06
4.34571e-08
-2.58818e-06
4.11863e-08
-2.60625e-06
3.8788e-08
-2.62305e-06
3.62597e-08
-2.63852e-06
3.35995e-08
-2.65257e-06
3.08061e-08
-2.66515e-06
2.78785e-08
-2.67619e-06
2.48162e-08
-2.68562e-06
2.16192e-08
-2.69337e-06
1.8288e-08
-2.69937e-06
1.48236e-08
-2.70357e-06
1.12258e-08
-2.70588e-06
7.49208e-09
-2.70624e-06
3.61835e-09
-2.70458e-06
-3.96488e-10
-2.70086e-06
-4.51907e-09
-2.69505e-06
-8.72095e-09
-2.68709e-06
-1.3014e-08
-2.67692e-06
-1.74084e-08
-2.6645e-06
-2.19101e-08
-2.64978e-06
-2.65223e-08
-2.63268e-06
-3.12465e-08
-2.61317e-06
-3.60832e-08
-2.59117e-06
-4.10329e-08
-2.56665e-06
-4.60949e-08
-2.53954e-06
-5.1267e-08
-2.50979e-06
-5.65448e-08
-2.47735e-06
-6.19229e-08
-2.44219e-06
-6.73952e-08
-2.40425e-06
-7.29536e-08
-2.3635e-06
-7.85882e-08
-2.31991e-06
-8.42873e-08
-2.27346e-06
-9.00386e-08
-2.22414e-06
-9.58285e-08
-2.17193e-06
-1.01641e-07
-2.11683e-06
-1.07458e-07
-2.05886e-06
-1.13258e-07
-1.99804e-06
-1.19021e-07
-1.93441e-06
-1.24723e-07
-1.86801e-06
-1.30339e-07
-1.79891e-06
-1.35843e-07
-1.72717e-06
-1.4121e-07
-1.65289e-06
-1.46412e-07
-1.57617e-06
-1.51417e-07
-1.49713e-06
-1.56193e-07
-1.41591e-06
-1.60715e-07
-1.33265e-06
-1.64951e-07
-1.24752e-06
-1.68866e-07
-1.1607e-06
-1.72435e-07
-1.07238e-06
-1.75631e-07
-9.82769e-07
-1.78418e-07
-8.92082e-07
-1.80785e-07
-8.00545e-07
-1.82706e-07
-7.08397e-07
-1.84152e-07
-6.15879e-07
-1.85127e-07
-5.2324e-07
-1.85597e-07
-4.30717e-07
-1.85591e-07
-3.38557e-07
-1.85086e-07
-2.46989e-07
-1.84124e-07
-1.56239e-07
-1.82724e-07
-6.64344e-08
-1.8097e-07
2.21337e-08
-1.78712e-07
1.08654e-07
-1.75694e-07
1.92651e-07
-1.72177e-07
2.74113e-07
-1.67455e-07
3.52908e-07
-1.61741e-07
4.28928e-07
-1.55936e-07
5.02057e-07
-1.50025e-07
5.72207e-07
-1.44017e-07
6.39308e-07
-1.37906e-07
7.03312e-07
-1.31695e-07
7.64176e-07
-1.25405e-07
8.21876e-07
-1.19058e-07
8.76405e-07
-1.12682e-07
9.27764e-07
-1.06305e-07
9.75979e-07
-9.99594e-08
1.02108e-06
-9.3671e-08
1.06312e-06
-8.7464e-08
1.10216e-06
-8.13656e-08
1.13826e-06
-7.53965e-08
1.17152e-06
-6.95785e-08
1.20202e-06
-6.39288e-08
1.22986e-06
-5.8458e-08
1.25515e-06
-5.31793e-08
1.27799e-06
-4.80872e-08
1.29847e-06
-4.31684e-08
1.31668e-06
-3.83924e-08
1.33265e-06
-3.36828e-08
1.34637e-06
-2.88972e-08
1.35769e-06
-2.37588e-08
1.3662e-06
-1.76699e-08
1.37103e-06
-9.54033e-09
1.37047e-06
3.79952e-09
1.36131e-06
2.81136e-08
8.17851e-08
1.3455e-06
-1.12579e-08
-1.16253e-08
-2.87751e-08
8.62437e-09
-4.78555e-08
2.55593e-08
-6.76667e-08
3.97044e-08
-8.82037e-08
5.18306e-08
-1.09631e-07
6.21236e-08
-1.32165e-07
7.06505e-08
-1.55983e-07
7.75265e-08
-1.81087e-07
8.296e-08
-2.07354e-07
8.71946e-08
-2.34598e-07
9.04627e-08
-2.62627e-07
9.29623e-08
-2.91264e-07
9.4851e-08
-3.20364e-07
9.62512e-08
-3.49806e-07
9.7258e-08
-3.79493e-07
9.79459e-08
-4.09351e-07
9.83754e-08
-4.39319e-07
9.85965e-08
-4.69352e-07
9.86516e-08
-4.99414e-07
9.8577e-08
-5.29479e-07
9.84043e-08
-5.59528e-07
9.81607e-08
-5.89548e-07
9.787e-08
-6.19532e-07
9.75524e-08
-6.49479e-07
9.72254e-08
-6.7939e-07
9.69038e-08
-7.0927e-07
9.65998e-08
-7.39127e-07
9.63236e-08
-7.68971e-07
9.60835e-08
-7.98814e-07
9.58862e-08
-8.28669e-07
9.57366e-08
-8.58548e-07
9.56389e-08
-8.88462e-07
9.55961e-08
-9.18417e-07
9.56094e-08
-9.48421e-07
9.56779e-08
-9.78482e-07
9.57981e-08
-1.00861e-06
9.59658e-08
-1.0388e-06
9.61759e-08
-1.06908e-06
9.64233e-08
-1.09945e-06
9.67027e-08
-1.12991e-06
9.70085e-08
-1.16046e-06
9.73352e-08
-1.19112e-06
9.7677e-08
-1.22187e-06
9.80285e-08
-1.25273e-06
9.83839e-08
-1.28369e-06
9.87378e-08
-1.31474e-06
9.90847e-08
-1.34588e-06
9.94192e-08
-1.3771e-06
9.97361e-08
-1.4084e-06
1.0003e-07
-1.43977e-06
1.00296e-07
-1.47119e-06
1.0053e-07
-1.50266e-06
1.00726e-07
-1.53415e-06
1.0088e-07
-1.56566e-06
1.00989e-07
-1.59716e-06
1.01047e-07
-1.62865e-06
1.01051e-07
-1.6601e-06
1.00998e-07
-1.69148e-06
1.00883e-07
-1.72279e-06
1.00703e-07
-1.75401e-06
1.00455e-07
-1.78509e-06
1.00135e-07
-1.81603e-06
9.9741e-08
-1.84681e-06
9.92693e-08
-1.87738e-06
9.87172e-08
-1.90773e-06
9.80814e-08
-1.93783e-06
9.73591e-08
-1.96765e-06
9.65467e-08
-1.99717e-06
9.5641e-08
-2.02634e-06
9.46385e-08
-2.05515e-06
9.35357e-08
-2.08355e-06
9.23292e-08
-2.11152e-06
9.10149e-08
-2.13901e-06
8.95888e-08
-2.16599e-06
8.80462e-08
-2.19242e-06
8.63825e-08
-2.21826e-06
8.45923e-08
-2.24347e-06
8.26705e-08
-2.268e-06
8.06113e-08
-2.29181e-06
7.84086e-08
-2.31485e-06
7.60563e-08
-2.33707e-06
7.3548e-08
-2.35841e-06
7.08773e-08
-2.37882e-06
6.8038e-08
-2.39824e-06
6.5024e-08
-2.41661e-06
6.18294e-08
-2.43387e-06
5.84488e-08
-2.44996e-06
5.48773e-08
-2.46481e-06
5.1111e-08
-2.47836e-06
4.71468e-08
-2.49054e-06
4.29821e-08
-2.50127e-06
3.86153e-08
-2.5105e-06
3.40456e-08
-2.51815e-06
2.9273e-08
-2.52417e-06
2.42983e-08
-2.52846e-06
1.91228e-08
-2.53098e-06
1.37466e-08
-2.53166e-06
8.16705e-09
-2.53042e-06
2.37937e-09
-2.52722e-06
-3.59385e-09
-2.52203e-06
-9.71137e-09
-2.51479e-06
-1.59614e-08
-2.50545e-06
-2.23538e-08
-2.49396e-06
-2.8899e-08
-2.48026e-06
-3.5604e-08
-2.46431e-06
-4.24735e-08
-2.44605e-06
-4.95096e-08
-2.42542e-06
-5.67137e-08
-2.40236e-06
-6.40858e-08
-2.37683e-06
-7.16242e-08
-2.34878e-06
-7.93249e-08
-2.31814e-06
-8.71817e-08
-2.28488e-06
-9.51865e-08
-2.24894e-06
-1.03329e-07
-2.2103e-06
-1.11596e-07
-2.16892e-06
-1.19972e-07
-2.12476e-06
-1.28441e-07
-2.07782e-06
-1.36982e-07
-2.02807e-06
-1.45574e-07
-1.97552e-06
-1.54194e-07
-1.92016e-06
-1.62813e-07
-1.86202e-06
-1.71402e-07
-1.80111e-06
-1.79926e-07
-1.73749e-06
-1.88348e-07
-1.67119e-06
-1.96632e-07
-1.6023e-06
-2.04738e-07
-1.53088e-06
-2.12629e-07
-1.45703e-06
-2.2026e-07
-1.38087e-06
-2.27582e-07
-1.30251e-06
-2.3455e-07
-1.2221e-06
-2.41124e-07
-1.1398e-06
-2.47258e-07
-1.05577e-06
-2.52897e-07
-9.70198e-07
-2.58004e-07
-8.83284e-07
-2.62545e-07
-7.9524e-07
-2.66462e-07
-7.06285e-07
-2.6974e-07
-6.16646e-07
-2.72345e-07
-5.26568e-07
-2.7423e-07
-4.36284e-07
-2.75411e-07
-3.46047e-07
-2.75835e-07
-2.56092e-07
-2.75547e-07
-1.66654e-07
-2.74525e-07
-7.796e-08
-2.72817e-07
9.75118e-09
-2.70435e-07
9.59223e-08
-2.67141e-07
1.80114e-07
-2.62904e-07
2.62156e-07
-2.57735e-07
3.41738e-07
-2.51759e-07
4.18893e-07
-2.4461e-07
4.93632e-07
-2.36478e-07
5.65693e-07
-2.27995e-07
6.34923e-07
-2.19255e-07
7.01213e-07
-2.10306e-07
7.64486e-07
-2.01178e-07
8.2469e-07
-1.91899e-07
8.81792e-07
-1.82507e-07
9.35778e-07
-1.73044e-07
9.86649e-07
-1.63554e-07
1.03442e-06
-1.54081e-07
1.07913e-06
-1.4467e-07
1.12083e-06
-1.35365e-07
1.15957e-06
-1.26202e-07
1.19542e-06
-1.17221e-07
1.22849e-06
-1.08456e-07
1.25885e-06
-9.99379e-08
1.28661e-06
-9.16911e-08
1.31188e-06
-8.37355e-08
1.33479e-06
-7.60848e-08
1.35544e-06
-6.87365e-08
1.37394e-06
-6.16719e-08
1.39039e-06
-5.48418e-08
1.40485e-06
-4.81437e-08
1.41733e-06
-4.13775e-08
1.42774e-06
-3.41717e-08
1.43585e-06
-2.57765e-08
1.44116e-06
-1.4854e-08
1.44311e-06
1.84628e-09
1.44168e-06
2.95496e-08
8.11147e-08
1.44235e-06
-2.04263e-08
8.80103e-09
-4.3256e-08
3.14512e-08
-6.57591e-08
4.80617e-08
-8.78842e-08
6.1829e-08
-1.09801e-07
7.37464e-08
-1.31752e-07
8.40749e-08
-1.54001e-07
9.28988e-08
-1.76765e-07
1.00291e-07
-2.00171e-07
1.06365e-07
-2.24248e-07
1.11272e-07
-2.4896e-07
1.15175e-07
-2.74233e-07
1.18236e-07
-2.99978e-07
1.20596e-07
-3.26107e-07
1.22381e-07
-3.52541e-07
1.23694e-07
-3.79214e-07
1.24619e-07
-4.06069e-07
1.25231e-07
-4.33061e-07
1.25589e-07
-4.60155e-07
1.25745e-07
-4.87321e-07
1.25744e-07
-5.14539e-07
1.25622e-07
-5.41794e-07
1.25415e-07
-5.69073e-07
1.25149e-07
-5.96371e-07
1.2485e-07
-6.23684e-07
1.24538e-07
-6.51013e-07
1.24232e-07
-6.78359e-07
1.23945e-07
-7.05726e-07
1.23691e-07
-7.33121e-07
1.23479e-07
-7.60551e-07
1.23316e-07
-7.88022e-07
1.23208e-07
-8.15542e-07
1.2316e-07
-8.43118e-07
1.23173e-07
-8.70755e-07
1.23247e-07
-8.98459e-07
1.23382e-07
-9.26236e-07
1.23574e-07
-9.5409e-07
1.2382e-07
-9.82027e-07
1.24113e-07
-1.01005e-06
1.24448e-07
-1.03817e-06
1.2482e-07
-1.06638e-06
1.25221e-07
-1.09469e-06
1.25645e-07
-1.1231e-06
1.26086e-07
-1.15161e-06
1.26536e-07
-1.18021e-06
1.26988e-07
-1.20891e-06
1.27435e-07
-1.2377e-06
1.27872e-07
-1.26657e-06
1.2829e-07
-1.29552e-06
1.28683e-07
-1.32453e-06
1.29045e-07
-1.3536e-06
1.29369e-07
-1.38272e-06
1.29649e-07
-1.41188e-06
1.2988e-07
-1.44105e-06
1.30055e-07
-1.47023e-06
1.3017e-07
-1.4994e-06
1.30218e-07
-1.52855e-06
1.30196e-07
-1.55765e-06
1.30098e-07
-1.58668e-06
1.29919e-07
-1.61564e-06
1.29656e-07
-1.64449e-06
1.29304e-07
-1.67321e-06
1.28859e-07
-1.70178e-06
1.28317e-07
-1.73019e-06
1.27674e-07
-1.7584e-06
1.26926e-07
-1.78638e-06
1.2607e-07
-1.81413e-06
1.25102e-07
-1.8416e-06
1.24017e-07
-1.86877e-06
1.2281e-07
-1.89561e-06
1.21479e-07
-1.92209e-06
1.20017e-07
-1.94818e-06
1.18421e-07
-1.97385e-06
1.16685e-07
-1.99907e-06
1.14804e-07
-2.02379e-06
1.12771e-07
-2.04799e-06
1.10581e-07
-2.07162e-06
1.08226e-07
-2.09465e-06
1.05699e-07
-2.11703e-06
1.02992e-07
-2.13872e-06
1.00098e-07
-2.15967e-06
9.70076e-08
-2.17984e-06
9.37124e-08
-2.19916e-06
9.02036e-08
-2.2176e-06
8.64728e-08
-2.23509e-06
8.25112e-08
-2.25157e-06
7.83108e-08
-2.26698e-06
7.3864e-08
-2.28127e-06
6.91641e-08
-2.29436e-06
6.42053e-08
-2.3062e-06
5.8983e-08
-2.31671e-06
5.34936e-08
-2.32583e-06
4.77346e-08
-2.33349e-06
4.17049e-08
-2.33962e-06
3.54044e-08
-2.34416e-06
2.88344e-08
-2.34703e-06
2.19967e-08
-2.34817e-06
1.48922e-08
-2.34753e-06
7.52016e-09
-2.34503e-06
-1.2011e-10
-2.34064e-06
-7.98526e-09
-2.33432e-06
-1.60312e-08
-2.32601e-06
-2.42618e-08
-2.31568e-06
-3.26859e-08
-2.30327e-06
-4.13137e-08
-2.28872e-06
-5.01535e-08
-2.27198e-06
-5.92107e-08
-2.253e-06
-6.84888e-08
-2.23173e-06
-7.79893e-08
-2.2081e-06
-8.77121e-08
-2.18207e-06
-9.76543e-08
-2.15358e-06
-1.07811e-07