/*--------------------------------*- C++ -*----------------------------------*\
| =========                 |                                                 |
| \\      /  F ield         | OpenFOAM: The Open Source CFD Toolbox           |
|  \\    /   O peration     | Version:  2.2.x                                 |
|   \\  /    A nd           | Web:      www.OpenFOAM.org                      |
|    \\/     M anipulation  |                                                 |
\*---------------------------------------------------------------------------*/
FoamFile
{
    version     2.0;
    format      ascii;
    class       volVectorField;
    location    "550";
    object      U;
}
// * * * * * * * * * * * * * * * * * * * * * * * * * * * * * * * * * * * * * //

dimensions      [0 1 -1 0 0 0 0];

internalField   nonuniform List<vector> 
12225
(
(9.83972 -1.23842 0)
(9.73872 -0.73149 0)
(9.53699 -0.467336 0)
(9.3232 -0.307409 0)
(9.12441 -0.205962 0)
(8.94083 -0.139601 0)
(8.77075 -0.0949578 0)
(8.6134 -0.0642694 0)
(8.46801 -0.0428344 0)
(8.33365 -0.0276766 0)
(8.20938 -0.0168545 0)
(8.09437 -0.00907376 0)
(7.98786 -0.00345443 0)
(7.88913 0.000616726 0)
(7.79749 0.00359864 0)
(7.71206 0.00602235 0)
(7.62697 0.00945683 0)
(7.56211 -0.0194521 0)
(10.0335 0.447389 0)
(10.0226 0.426929 0)
(9.98835 0.340231 0)
(9.94295 0.270972 0)
(9.8966 0.217795 0)
(9.84857 0.177204 0)
(9.79816 0.146647 0)
(9.74605 0.123656 0)
(9.69314 0.106205 0)
(9.6401 0.0928046 0)
(9.58742 0.0823838 0)
(9.53552 0.0741695 0)
(9.48474 0.0676039 0)
(9.43531 0.0622937 0)
(9.38741 0.0580078 0)
(9.34123 0.0548753 0)
(9.29827 0.0540873 0)
(9.26408 0.0680047 0)
(9.9929 0.0267764 0)
(10.0022 -0.00877499 0)
(10.0178 -0.0275902 0)
(10.0247 -0.0224599 0)
(10.0279 -0.011103 0)
(10.0282 0.000207895 0)
(10.0255 0.0102802 0)
(10.0204 0.0188071 0)
(10.0136 0.0257552 0)
(10.0055 0.0312681 0)
(9.99643 0.0355566 0)
(9.98664 0.0388309 0)
(9.97636 0.0412793 0)
(9.96579 0.0430737 0)
(9.95514 0.0444036 0)
(9.94476 0.0455549 0)
(9.93581 0.0466738 0)
(9.92861 0.0446205 0)
(9.99998 0.0196729 0)
(10.0123 0.0433468 0)
(10.0308 0.0556625 0)
(10.0412 0.0652617 0)
(10.0483 0.0706222 0)
(10.0544 0.072347 0)
(10.0592 0.0721144 0)
(10.0629 0.0709551 0)
(10.0659 0.0693598 0)
(10.0684 0.0675836 0)
(10.0704 0.0657667 0)
(10.0721 0.0639787 0)
(10.0736 0.0622479 0)
(10.0748 0.0605854 0)
(10.0761 0.0590035 0)
(10.0776 0.0574995 0)
(10.08 0.0557995 0)
(10.0834 0.0522458 0)
(10.0023 0.0186687 0)
(10.0144 0.04079 0)
(10.0302 0.0467908 0)
(10.0404 0.0491616 0)
(10.0485 0.050553 0)
(10.0561 0.0510686 0)
(10.063 0.0512237 0)
(10.0691 0.051315 0)
(10.0747 0.0513834 0)
(10.08 0.0514017 0)
(10.0849 0.0513437 0)
(10.0895 0.0511878 0)
(10.094 0.0509154 0)
(10.0983 0.0505088 0)
(10.1027 0.0499412 0)
(10.1072 0.0491279 0)
(10.1121 0.0477506 0)
(10.1173 0.0448265 0)
(10.0025 0.0189103 0)
(10.0131 0.0369729 0)
(10.0269 0.0431776 0)
(10.0373 0.0464792 0)
(10.0459 0.0491754 0)
(10.054 0.0509595 0)
(10.0614 0.0520235 0)
(10.0682 0.0526407 0)
(10.0745 0.052935 0)
(10.0805 0.052963 0)
(10.0862 0.0527648 0)
(10.0917 0.0523681 0)
(10.097 0.0517856 0)
(10.1023 0.0510129 0)
(10.1075 0.050017 0)
(10.1128 0.0486985 0)
(10.1182 0.0468137 0)
(10.1236 0.0439044 0)
(10.0022 0.0166095 0)
(10.0111 0.0316981 0)
(10.0232 0.0386584 0)
(10.0334 0.0426123 0)
(10.0421 0.0455285 0)
(10.0502 0.0473973 0)
(10.0578 0.0484529 0)
(10.0648 0.049003 0)
(10.0714 0.0492144 0)
(10.0777 0.0491658 0)
(10.0837 0.0489021 0)
(10.0895 0.0484473 0)
(10.0951 0.0478062 0)
(10.1007 0.046963 0)
(10.1061 0.0458733 0)
(10.1116 0.0444429 0)
(10.1169 0.0425047 0)
(10.1221 0.039852 0)
(10.0019 0.014655 0)
(10.0095 0.0280399 0)
(10.0202 0.0353012 0)
(10.0299 0.0395227 0)
(10.0384 0.0424916 0)
(10.0465 0.0444315 0)
(10.054 0.0455773 0)
(10.0611 0.0462041 0)
(10.0678 0.0464724 0)
(10.0741 0.0464606 0)
(10.0803 0.0462124 0)
(10.0862 0.0457511 0)
(10.0919 0.0450806 0)
(10.0975 0.0441857 0)
(10.103 0.0430268 0)
(10.1083 0.0415321 0)
(10.1135 0.0395983 0)
(10.1185 0.0371515 0)
(10.0017 0.0130678 0)
(10.0083 0.0250749 0)
(10.0178 0.0322316 0)
(10.0269 0.0365482 0)
(10.0351 0.0395444 0)
(10.043 0.0415342 0)
(10.0504 0.0427437 0)
(10.0575 0.0434186 0)
(10.0642 0.043713 0)
(10.0706 0.0437081 0)
(10.0767 0.0434505 0)
(10.0827 0.0429652 0)
(10.0884 0.0422582 0)
(10.094 0.0413178 0)
(10.0994 0.0401127 0)
(10.1047 0.0385922 0)
(10.1097 0.0366946 0)
(10.1145 0.0344147 0)
(10.0015 0.01151 0)
(10.0071 0.0221153 0)
(10.0154 0.0289534 0)
(10.0238 0.0332654 0)
(10.0316 0.0362518 0)
(10.0392 0.038262 0)
(10.0465 0.0395122 0)
(10.0534 0.0402198 0)
(10.0601 0.0405309 0)
(10.0664 0.0405284 0)
(10.0725 0.0402609 0)
(10.0784 0.0397552 0)
(10.0842 0.0390205 0)
(10.0897 0.0380502 0)
(10.095 0.0368244 0)
(10.1001 0.0353133 0)
(10.105 0.0334893 0)
(10.1096 0.0313863 0)
(10.0013 0.00995799 0)
(10.006 0.0191597 0)
(10.0132 0.0255163 0)
(10.0208 0.0297047 0)
(10.0282 0.0326123 0)
(10.0353 0.0345891 0)
(10.0423 0.0358395 0)
(10.0491 0.0365524 0)
(10.0556 0.0368624 0)
(10.0618 0.0368514 0)
(10.0678 0.0365687 0)
(10.0736 0.0360429 0)
(10.0793 0.0352869 0)
(10.0847 0.0343013 0)
(10.0898 0.0330779 0)
(10.0948 0.0316061 0)
(10.0994 0.0298831 0)
(10.1039 0.0279601 0)
(10.0011 0.00842417 0)
(10.005 0.0162459 0)
(10.0112 0.0219679 0)
(10.018 0.025897 0)
(10.0248 0.0286433 0)
(10.0316 0.0305243 0)
(10.0382 0.0317273 0)
(10.0447 0.0324121 0)
(10.0509 0.0326989 0)
(10.057 0.0326654 0)
(10.0628 0.0323608 0)
(10.0685 0.0318154 0)
(10.0739 0.0310464 0)
(10.0791 0.0300617 0)
(10.0841 0.0288645 0)
(10.0889 0.0274587 0)
(10.0933 0.0258574 0)
(10.0976 0.0241159 0)
(10.0009 0.00692397 0)
(10.0042 0.0133931 0)
(10.0094 0.0183434 0)
(10.0154 0.0218709 0)
(10.0217 0.0243618 0)
(10.028 0.0260753 0)
(10.0342 0.0271741 0)
(10.0403 0.0277902 0)
(10.0463 0.0280263 0)
(10.0521 0.0279536 0)
(10.0578 0.0276193 0)
(10.0632 0.027055 0)
(10.0684 0.0262817 0)
(10.0734 0.0253139 0)
(10.0782 0.0241632 0)
(10.0827 0.0228436 0)
(10.0869 0.0213757 0)
(10.091 0.019812 0)
(10.0008 0.00546373 0)
(10.0035 0.0106024 0)
(10.0079 0.0146679 0)
(10.0132 0.0176547 0)
(10.0189 0.0197851 0)
(10.0247 0.0212492 0)
(10.0305 0.0221786 0)
(10.0363 0.0226781 0)
(10.042 0.0228313 0)
(10.0475 0.0226999 0)
(10.0529 0.0223276 0)
(10.058 0.0217455 0)
(10.063 0.0209769 0)
(10.0678 0.0200404 0)
(10.0723 0.0189532 0)
(10.0766 0.0177337 0)
(10.0806 0.0164052 0)
(10.0845 0.0150134 0)
(10.0006 0.00403901 0)
(10.003 0.00785872 0)
(10.0067 0.0109484 0)
(10.0114 0.0132651 0)
(10.0165 0.0149235 0)
(10.0218 0.016048 0)
(10.0272 0.0167352 0)
(10.0326 0.0170631 0)
(10.038 0.0170956 0)
(10.0432 0.0168824 0)
(10.0483 0.0164609 0)
(10.0532 0.0158597 0)
(10.058 0.0151017 0)
(10.0625 0.0142069 0)
(10.0668 0.0131938 0)
(10.0708 0.0120818 0)
(10.0746 0.0108925 0)
(10.0783 0.009664 0)
(10.0006 0.00263238 0)
(10.0025 0.00512664 0)
(10.0058 0.00716075 0)
(10.0099 0.00868923 0)
(10.0145 0.00976305 0)
(10.0194 0.0104528 0)
(10.0245 0.01082 0)
(10.0295 0.0109162 0)
(10.0346 0.0107852 0)
(10.0395 0.0104625 0)
(10.0443 0.00997668 0)
(10.049 0.009351 0)
(10.0535 0.00860515 0)
(10.0578 0.00775689 0)
(10.0618 0.00682312 0)
(10.0657 0.00582072 0)
(10.0693 0.00476779 0)
(10.0729 0.00369472 0)
(10.0005 0.00121166 0)
(10.0022 0.0023464 0)
(10.0052 0.00324463 0)
(10.0089 0.00387556 0)
(10.0131 0.00425596 0)
(10.0177 0.00441588 0)
(10.0224 0.00438418 0)
(10.0272 0.00418663 0)
(10.0319 0.00384617 0)
(10.0366 0.00338252 0)
(10.0412 0.00281251 0)
(10.0457 0.0021509 0)
(10.0499 0.00141105 0)
(10.054 0.000605555 0)
(10.0579 -0.000253345 0)
(10.0616 -0.00115346 0)
(10.0651 -0.00208185 0)
(10.0685 -0.00301532 0)
(10.0005 -0.000187108 0)
(10.0021 -0.000403213 0)
(10.0049 -0.000661843 0)
(10.0084 -0.000970705 0)
(10.0125 -0.00133136 0)
(10.0168 -0.00174562 0)
(10.0213 -0.00221433 0)
(10.0259 -0.00273631 0)
(10.0305 -0.00330912 0)
(10.0351 -0.00392951 0)
(10.0395 -0.00459362 0)
(10.0438 -0.0052971 0)
(10.0479 -0.00603493 0)
(10.0518 -0.00680154 0)
(10.0556 -0.00759084 0)
(10.0591 -0.00839627 0)
(10.0625 -0.00921031 0)
(10.0658 -0.0100166 0)
(10.0005 -0.00147982 0)
(10.0021 -0.00295312 0)
(10.0049 -0.00429569 0)
(10.0085 -0.00548373 0)
(10.0125 -0.00653371 0)
(10.0169 -0.0074795 0)
(10.0214 -0.00835072 0)
(10.0259 -0.00916934 0)
(10.0305 -0.00995245 0)
(10.0349 -0.0107132 0)
(10.0393 -0.011461 0)
(10.0435 -0.0122019 0)
(10.0475 -0.0129393 0)
(10.0514 -0.013675 0)
(10.0551 -0.0144087 0)
(10.0586 -0.0151394 0)
(10.0619 -0.0158643 0)
(10.0652 -0.0165727 0)
(10.0005 -0.00266681 0)
(10.0022 -0.00530873 0)
(10.0052 -0.00764913 0)
(10.0089 -0.00961879 0)
(10.0132 -0.0112618 0)
(10.0176 -0.0126553 0)
(10.0222 -0.0138584 0)
(10.0269 -0.0149149 0)
(10.0315 -0.0158605 0)
(10.0359 -0.0167237 0)
(10.0403 -0.0175259 0)
(10.0445 -0.0182824 0)
(10.0485 -0.0190041 0)
(10.0524 -0.0196991 0)
(10.056 -0.0203725 0)
(10.0595 -0.0210276 0)
(10.0628 -0.0216656 0)
(10.066 -0.0222799 0)
(10.0005 -0.00379206 0)
(10.0024 -0.00758435 0)
(10.0057 -0.0108795 0)
(10.0098 -0.0135415 0)
(10.0143 -0.0156838 0)
(10.019 -0.0174468 0)
(10.0238 -0.0189179 0)
(10.0286 -0.0201605 0)
(10.0332 -0.0212295 0)
(10.0378 -0.0221682 0)
(10.0422 -0.0230083 0)
(10.0464 -0.023773 0)
(10.0505 -0.0244793 0)
(10.0544 -0.0251403 0)
(10.058 -0.0257657 0)
(10.0615 -0.0263632 0)
(10.0648 -0.0269379 0)
(10.068 -0.0274886 0)
(10.0005 -0.00485839 0)
(10.0026 -0.00985648 0)
(10.0063 -0.0140893 0)
(10.0109 -0.017335 0)
(10.0158 -0.0198647 0)
(10.0208 -0.0219043 0)
(10.0258 -0.0235614 0)
(10.0308 -0.0249177 0)
(10.0356 -0.0260476 0)
(10.0402 -0.0270077 0)
(10.0447 -0.0278381 0)
(10.049 -0.0285686 0)
(10.0531 -0.0292217 0)
(10.0569 -0.0298149 0)
(10.0606 -0.0303622 0)
(10.0641 -0.0308746 0)
(10.0673 -0.0313602 0)
(10.0705 -0.0318202 0)
(10.0005 -0.00583264 0)
(10.0027 -0.012202 0)
(10.0071 -0.0173786 0)
(10.0123 -0.0211097 0)
(10.0177 -0.0239602 0)
(10.023 -0.0262316 0)
(10.0282 -0.0280384 0)
(10.0334 -0.0294898 0)
(10.0383 -0.0306822 0)
(10.0431 -0.0316805 0)
(10.0476 -0.032528 0)
(10.0519 -0.0332561 0)
(10.056 -0.0338894 0)
(10.0599 -0.0344475 0)
(10.0635 -0.0349466 0)
(10.067 -0.0354019 0)
(10.0702 -0.0358283 0)
(10.0733 -0.0362387 0)
(10.0002 -0.00663963 0)
(10.0027 -0.0146696 0)
(10.0079 -0.0205844 0)
(10.0139 -0.0245247 0)
(10.0196 -0.0275495 0)
(10.0252 -0.0299205 0)
(10.0306 -0.031719 0)
(10.0359 -0.0330991 0)
(10.0409 -0.0341941 0)
(10.0457 -0.035085 0)
(10.0502 -0.0358226 0)
(10.0545 -0.0364428 0)
(10.0586 -0.0369721 0)
(10.0624 -0.03743 0)
(10.066 -0.0378323 0)
(10.0694 -0.0381935 0)
(10.0725 -0.038528 0)
(10.0755 -0.0388472 0)
(9.99982 -0.00723302 0)
(10.0024 -0.0181496 0)
(10.0087 -0.0247108 0)
(10.0154 -0.0286397 0)
(10.0213 -0.0319218 0)
(10.0271 -0.0346342 0)
(10.0327 -0.0367313 0)
(10.038 -0.0383537 0)
(10.0431 -0.0396269 0)
(10.0478 -0.0406264 0)
(10.0523 -0.0414071 0)
(10.0565 -0.042014 0)
(10.0604 -0.0424826 0)
(10.0642 -0.0428404 0)
(10.0676 -0.04311 0)
(10.0709 -0.043313 0)
(10.0739 -0.0434781 0)
(10.0768 -0.0436496 0)
(9.99841 -0.0050231 0)
(10.0007 -0.0202967 0)
(10.0088 -0.0271162 0)
(10.016 -0.0298266 0)
(10.0218 -0.031776 0)
(10.0276 -0.0332814 0)
(10.0332 -0.0344818 0)
(10.0385 -0.0355592 0)
(10.0434 -0.0365737 0)
(10.048 -0.0375211 0)
(10.0524 -0.0383917 0)
(10.0564 -0.0391809 0)
(10.0602 -0.0398862 0)
(10.0637 -0.0405057 0)
(10.067 -0.0410387 0)
(10.0699 -0.041487 0)
(10.0726 -0.0418617 0)
(10.075 -0.0421891 0)
(9.99479 -0.00318981 0)
(9.99583 -0.0256849 0)
(10.0072 -0.0394744 0)
(10.0157 -0.0487429 0)
(10.0217 -0.0546531 0)
(10.0272 -0.0576319 0)
(10.0322 -0.0587813 0)
(10.0367 -0.0589534 0)
(10.0408 -0.0585935 0)
(10.0445 -0.0579398 0)
(10.0479 -0.0571382 0)
(10.0511 -0.0562777 0)
(10.0539 -0.0554085 0)
(10.0565 -0.0545541 0)
(10.0588 -0.0537196 0)
(10.0609 -0.0528966 0)
(10.0627 -0.0520793 0)
(10.0642 -0.0512762 0)
(9.98519 0.00576503 0)
(9.98187 0.0248629 0)
(9.9941 0.036505 0)
(10.0036 0.0321308 0)
(10.0108 0.0222955 0)
(10.0167 0.0122722 0)
(10.021 0.00311232 0)
(10.024 -0.00498952 0)
(10.0258 -0.011964 0)
(10.0268 -0.0178529 0)
(10.0271 -0.0227692 0)
(10.0267 -0.0268445 0)
(10.0259 -0.0302024 0)
(10.0247 -0.0329489 0)
(10.023 -0.0351664 0)
(10.0211 -0.0369052 0)
(10.0188 -0.0381812 0)
(10.0158 -0.0388892 0)
(10.0137 -0.317343 0)
(10.0102 -0.326328 0)
(9.99894 -0.271527 0)
(9.98282 -0.224895 0)
(9.96832 -0.188173 0)
(9.95434 -0.158849 0)
(9.93922 -0.13578 0)
(9.92268 -0.117771 0)
(9.90492 -0.103651 0)
(9.88618 -0.0924887 0)
(9.86664 -0.0835884 0)
(9.84649 -0.0764293 0)
(9.82593 -0.070617 0)
(9.80513 -0.0658485 0)
(9.78426 -0.0618831 0)
(9.76347 -0.0585094 0)
(9.74297 -0.0554983 0)
(9.72208 -0.0522343 0)
(9.95412 0.913092 0)
(9.95406 0.561001 0)
(9.86626 0.375415 0)
(9.75288 0.258524 0)
(9.63881 0.180488 0)
(9.5277 0.126932 0)
(9.41982 0.0891647 0)
(9.31595 0.0619572 0)
(9.21675 0.042069 0)
(9.12244 0.027379 0)
(9.03305 0.0164434 0)
(8.94848 0.00825602 0)
(8.86859 0.00210335 0)
(8.79321 -0.00252704 0)
(8.72214 -0.00600512 0)
(8.6552 -0.00859126 0)
(8.59246 -0.0104304 0)
(8.53198 -0.0113671 0)
(0.0098808 -0.0254627 0)
(0.0243033 -0.0244747 0)
(0.033355 -0.0144796 0)
(0.0344385 -0.00187704 0)
(0.026768 0.0107068 0)
(0.0126283 0.0214242 0)
(-0.00813331 0.0294028 -2.7661e-19)
(-0.0317978 0.0334557 2.37979e-19)
(-0.057833 0.0353488 0)
(-0.0855163 0.0362618 1.79585e-19)
(-0.114341 0.0367234 0)
(-0.144016 0.036948 0)
(-0.174342 0.0370192 0)
(-0.205168 0.0369712 -1.18032e-19)
(-0.236369 0.0368221 0)
(-0.267838 0.0365862 0)
(-0.299487 0.0362772 9.37214e-20)
(-0.331241 0.0359088 0)
(-0.363036 0.035494 0)
(-0.394821 0.035045 0)
(-0.426558 0.0345726 -7.39264e-20)
(-0.458215 0.034086 0)
(-0.48977 0.0335928 -6.70789e-20)
(-0.52121 0.0330995 0)
(-0.552528 0.0326108 0)
(-0.583719 0.0321303 -5.91254e-20)
(-0.614788 0.0316611 0)
(-0.64574 0.031205 5.49232e-20)
(-0.676581 0.0307639 0)
(-0.707322 0.030339 -5.1362e-20)
(-0.737982 0.0299328 0)
(-0.768585 0.029552 0)
(-0.799143 0.0292083 0)
(-0.829645 0.0289143 0)
(-0.860179 0.0286715 0)
(-0.890764 0.0284645 4.32541e-20)
(-0.921426 0.0282853 0)
(-0.952184 0.0281284 -8.22853e-20)
(-0.983059 0.02799 0)
(-1.01406 0.0278668 7.8489e-20)
(-1.04521 0.0277562 0)
(-1.07652 0.0276557 0)
(-1.10798 0.027563 -7.34502e-20)
(-1.13962 0.0274761 0)
(-1.17143 0.0273931 -7.04556e-20)
(-1.20342 0.027312 6.90528e-20)
(-1.23559 0.0272314 0)
(-1.26793 0.0271495 6.64161e-20)
(-1.30044 0.0270648 6.51752e-20)
(-1.33313 0.0269759 0)
(-1.36597 0.0268815 0)
(-1.39897 0.0267802 0)
(-1.43212 0.0266709 0)
(-1.4654 0.0265527 0)
(-1.4988 0.0264246 -5.86367e-20)
(-1.53231 0.0262859 0)
(-1.56591 0.0261358 5.67471e-20)
(-1.59959 0.0259737 0)
(-1.63332 0.0257989 0)
(-1.66709 0.0256106 -5.41316e-20)
(-1.70087 0.0254082 0)
(-1.73466 0.0251911 5.2515e-20)
(-1.76842 0.024959 0)
(-1.80212 0.0247115 0)
(-1.83575 0.0244485 0)
(-1.86929 0.0241696 -4.95337e-20)
(-1.90269 0.0238746 0)
(-1.93594 0.023563 0)
(-1.969 0.0232342 -4.74763e-20)
(-2.00185 0.0228878 0)
(-2.03446 0.0225235 -4.61711e-20)
(-2.06679 0.022141 0)
(-2.0988 0.02174 0)
(-2.13047 0.02132 0)
(-2.16175 0.0208806 4.36781e-20)
(-2.19262 0.0204211 0)
(-2.22302 0.0199411 0)
(-2.25292 0.0194399 4.18756e-20)
(-2.28228 0.018917 4.12817e-20)
(-2.31104 0.0183718 0)
(-2.33917 0.0178036 4.00974e-20)
(-2.36661 0.0172115 0)
(-2.39332 0.016595 7.7821e-20)
(-2.41924 0.0159534 0)
(-2.44431 0.0152864 7.54234e-20)
(-2.46848 0.0145932 0)
(-2.49169 0.0138734 -7.29829e-20)
(-2.51387 0.0131266 0)
(-2.53498 0.0123526 0)
(-2.55494 0.0115514 0)
(-2.57369 0.0107233 6.78933e-20)
(-2.59116 0.00986839 0)
(-2.60729 0.00898671 -6.52013e-20)
(-2.62202 0.00807845 0)
(-2.63527 0.007144 6.23812e-20)
(-2.64698 0.0061839 6.09154e-20)
(-2.65709 0.00519842 5.94084e-20)
(-2.66552 0.00418614 0)
(-2.67221 0.0031428 0)
(-2.67709 0.00206625 0)
(-2.68007 0.000968744 0)
(-2.68111 -0.000134605 0)
(-2.68015 -0.00124659 0)
(-2.67716 -0.0023756 0)
(-2.67208 -0.00352419 0)
(-2.66485 -0.00469379 -4.32357e-20)
(-2.65541 -0.00588492 -4.10796e-20)
(-2.6437 -0.00709777 0)
(-2.62965 -0.00833281 0)
(-2.61321 -0.00959067 0)
(-2.5943 -0.0108715 -3.15405e-20)
(-2.57287 -0.0121744 0)
(-2.54886 -0.0134984 0)
(-2.5222 -0.0148427 0)
(-2.49285 -0.0162068 0)
(-2.46075 -0.0175893 1.71146e-20)
(-2.42585 -0.0189883 0)
(-2.38811 -0.020402 0)
(-2.3475 -0.021829 -6.78158e-21)
(-2.30399 -0.0232671 3.00548e-21)
(-2.25755 -0.0247132 0)
(-2.20816 -0.0261638 -5.10723e-21)
(-2.15583 -0.0276156 0)
(-2.10056 -0.0290659 1.40478e-20)
(-2.04237 -0.0305111 0)
(-1.98128 -0.0319466 0)
(-1.91735 -0.0333675 0)
(-1.85061 -0.0347691 0)
(-1.78116 -0.0361472 0)
(-1.70906 -0.037497 -9.41213e-20)
(-1.63442 -0.0388132 -1.07346e-19)
(-1.55735 -0.0400898 0)
(-1.47798 -0.0413216 0)
(-1.39647 -0.0425052 0)
(-1.31297 -0.043634 1.68633e-19)
(-1.22766 -0.0447011 0)
(-1.14074 -0.0457072 0)
(-1.05239 -0.0466439 0)
(-0.962853 -0.0475049 2.47528e-19)
(-0.872342 -0.0482888 -2.70918e-19)
(-0.781098 -0.0489907 0)
(-0.689358 -0.0496144 0)
(-0.597359 -0.0501576 -3.52886e-19)
(-0.505351 -0.0506253 -3.85028e-19)
(-0.413558 -0.0510554 0)
(-0.32226 -0.0514413 0)
(-0.231383 -0.0518532 5.01275e-19)
(-0.141434 -0.0523106 -5.48586e-19)
(-0.0538613 -0.0523787 0)
(0.0365481 -0.0506792 0)
(0.120386 -0.047839 -5.93707e-19)
(0.202298 -0.0451426 0)
(0.281533 -0.042611 0)
(0.358016 -0.0402104 -5.36052e-19)
(0.431691 -0.0379163 0)
(0.502496 -0.0357129 -5.07849e-19)
(0.57038 -0.033588 0)
(0.635288 -0.0315384 0)
(0.697182 -0.0295629 0)
(0.756031 -0.0276559 4.66664e-19)
(0.811824 -0.0258201 0)
(0.864565 -0.0240532 0)
(0.914257 -0.0223529 0)
(0.960938 -0.0207229 0)
(1.00464 -0.0191629 0)
(1.04542 -0.0176728 0)
(1.08334 -0.0162541 4.24083e-19)
(1.11846 -0.0149025 4.20037e-19)
(1.15086 -0.0136152 0)
(1.18062 -0.0123892 0)
(1.20779 -0.0112166 0)
(1.23245 -0.0100896 -4.07546e-19)
(1.25464 -0.00899415 0)
(1.27433 -0.00789723 8.0669e-19)
(1.29141 -0.00675179 -8.03655e-19)
(1.30547 -0.00542776 -8.01708e-19)
(1.31584 -0.00373042 8.01455e-19)
(1.31965 -0.000787887 -8.0352e-19)
(1.31554 0.00477917 8.09549e-19)
(1.26308 0.0228586 0)
(0.00238321 -0.0465979 0)
(0.00236332 -0.0289871 0)
(-0.00576514 -0.00353988 2.42356e-19)
(-0.0180422 0.0199086 0)
(-0.0332509 0.0395977 -1.58657e-19)
(-0.0509188 0.055182 -1.44299e-19)
(-0.0707593 0.0666811 -6.71723e-20)
(-0.0925633 0.0745862 -6.33397e-20)
(-0.116219 0.0798922 0)
(-0.141445 0.083434 -5.65639e-20)
(-0.167907 0.0857983 0)
(-0.195311 0.0873573 0)
(-0.223423 0.0883356 9.62553e-20)
(-0.25206 0.0888717 4.58605e-20)
(-0.281083 0.0890565 -8.72809e-20)
(-0.31038 0.0889563 -8.33694e-20)
(-0.339865 0.088624 -3.99759e-20)
(-0.369469 0.0881044 0)
(-0.399136 0.0874366 0)
(-0.428823 0.0866552 0)
(-0.458499 0.0857905 -3.40855e-20)
(-0.48814 0.0848689 0)
(-0.517728 0.0839131 9.59185e-20)
(-0.547255 0.0829422 0)
(-0.576718 0.0819721 0)
(-0.606117 0.0810159 2.92965e-20)
(-0.635458 0.080084 0)
(-0.664751 0.0791848 -2.7788e-20)
(-0.694007 0.0783248 -5.40725e-20)
(-0.723242 0.0775091 2.6473e-20)
(-0.752473 0.0767413 0)
(-0.781721 0.0760266 0)
(-0.811005 0.0753746 0)
(-0.840335 0.0747958 -4.84259e-20)
(-0.869722 0.0742891 -4.74733e-20)
(-0.899177 0.0738438 -2.33551e-20)
(-0.92871 0.0734506 0)
(-0.958336 0.0731013 4.50126e-20)
(-0.988065 0.072789 0)
(-1.01791 0.0725074 -4.34506e-20)
(-1.04788 0.0722509 0)
(-1.07797 0.0720142 0)
(-1.10821 0.0717924 4.13169e-20)
(-1.13858 0.0715806 0)
(-1.1691 0.0713744 1.19748e-19)
(-1.19977 0.0711694 -3.93895e-20)
(-1.23058 0.0709618 0)
(-1.26153 0.0707477 -3.82001e-20)
(-1.29261 0.0705234 -3.76309e-20)
(-1.32383 0.0702856 0)
(-1.35518 0.0700309 0)
(-1.38664 0.0697564 0)
(-1.41822 0.0694593 0)
(-1.44988 0.069137 0)
(-1.48163 0.0687873 3.45168e-20)
(-1.51345 0.0684081 6.78077e-20)
(-1.54533 0.0679977 -3.35768e-20)
(-1.57724 0.0675543 0)
(-1.60917 0.0670763 6.50858e-20)
(-1.6411 0.0665621 -3.19746e-20)
(-1.67302 0.0660103 0)
(-1.7049 0.0654197 -3.13964e-20)
(-1.73671 0.0647893 0)
(-1.76844 0.0641183 0)
(-1.80007 0.0634059 -6.01112e-20)
(-1.83156 0.0626514 2.97911e-20)
(-1.8629 0.0618539 -5.85615e-20)
(-1.89405 0.0610125 5.78024e-20)
(-1.92499 0.0601261 2.86467e-20)
(-1.95569 0.059194 0)
(-1.98611 0.0582151 2.79043e-20)
(-2.01623 0.0571888 0)
(-2.04602 0.0561142 0)
(-2.07543 0.0549903 0)
(-2.10444 0.053816 2.62363e-20)
(-2.13301 0.0525899 0)
(-2.16109 0.0513106 5.12564e-20)
(-2.18865 0.0499767 -7.591e-20)
(-2.21565 0.0485869 -2.50071e-20)
(-2.24203 0.0471395 0)
(-2.26776 0.0456329 -2.42785e-20)
(-2.29278 0.0440654 0)
(-2.31705 0.0424355 -4.70776e-20)
(-2.34051 0.0407418 0)
(-2.3631 0.038983 -4.55659e-20)
(-2.38477 0.0371581 8.93209e-20)
(-2.40546 0.0352662 4.40118e-20)
(-2.42511 0.0333067 0)
(-2.44365 0.0312794 0)
(-2.46103 0.029185 0)
(-2.47716 0.0270243 -4.07346e-20)
(-2.492 0.0247984 0)
(-2.50547 0.0225086 3.89899e-20)
(-2.51751 0.0201565 0)
(-2.52804 0.0177441 -1.11416e-19)
(-2.537 0.0152738 -3.621e-20)
(-2.54432 0.0127478 -3.52346e-20)
(-2.54994 0.0101651 0)
(-2.5538 0.00751968 0)
(-2.5558 0.00481026 0)
(-2.55587 0.00206047 0)
(-2.55401 -0.000703847 0)
(-2.55016 -0.003485 -5.75619e-20)
(-2.54426 -0.00629205 -5.5151e-20)
(-2.53625 -0.0091292 0)
(-2.52608 -0.0119982 2.49075e-20)
(-2.51368 -0.0148993 2.35622e-20)
(-2.49899 -0.0178319 0)
(-2.48196 -0.0207955 4.18616e-20)
(-2.46252 -0.0237894 0)
(-2.44061 -0.0268117 -1.81889e-20)
(-2.41617 -0.0298592 0)
(-2.38915 -0.032928 0)
(-2.35948 -0.0360139 2.6247e-20)
(-2.32712 -0.0391125 0)
(-2.29202 -0.0422178 -9.30218e-21)
(-2.25413 -0.0453232 0)
(-2.21343 -0.0484217 0)
(-2.16987 -0.0515061 -4.40026e-21)
(-2.12345 -0.0545683 -1.57799e-21)
(-2.07413 -0.0575988 0)
(-2.02192 -0.0605868 -1.68403e-21)
(-1.96682 -0.0635218 0)
(-1.90884 -0.0663929 6.02806e-21)
(-1.84802 -0.0691888 1.76531e-20)
(-1.78439 -0.0718974 0)
(-1.718 -0.0745067 0)
(-1.64893 -0.0770039 0)
(-1.57725 -0.0793753 0)
(-1.50307 -0.0816082 4.34403e-20)
(-1.42649 -0.0836914 1.43436e-19)
(-1.34764 -0.0856113 0)
(-1.26667 -0.0873536 0)
(-1.18373 -0.0889101 0)
(-1.099 -0.0902696 -7.07328e-20)
(-1.01267 -0.0914174 0)
(-0.92494 -0.0923545 0)
(-0.836016 -0.0930687 1.73344e-19)
(-0.746126 -0.0935511 9.10928e-20)
(-0.655501 -0.0938034 1.00282e-19)
(-0.564382 -0.0938179 0)
(-0.473003 -0.093608 0)
(-0.38161 -0.0931795 1.18971e-19)
(-0.290428 -0.0925474 -1.22182e-19)
(-0.199693 -0.0917573 0)
(-0.109676 -0.0908242 0)
(-0.0202893 -0.089653 -1.43925e-19)
(0.0678897 -0.0882029 4.37884e-19)
(0.153327 -0.0865 0)
(0.23724 -0.0837354 0)
(0.318249 -0.0801495 1.51376e-19)
(0.396909 -0.0766368 0)
(0.472958 -0.0731611 3.06379e-19)
(0.546284 -0.0697238 -1.53535e-19)
(0.616794 -0.0663161 0)
(0.684416 -0.062934 1.57994e-19)
(0.749095 -0.0595803 3.16421e-19)
(0.810785 -0.0562627 0)
(0.869455 -0.0529903 0)
(0.925093 -0.0497716 -1.6186e-19)
(0.977698 -0.0466187 0)
(1.02729 -0.0435398 3.25707e-19)
(1.07389 -0.0405422 0)
(1.11754 -0.037636 0)
(1.15831 -0.0348273 0)
(1.19625 -0.0321222 0)
(1.23144 -0.0295259 -1.66579e-19)
(1.26397 -0.0270385 -1.67096e-19)
(1.29394 -0.0246623 0)
(1.32143 -0.0223928 0)
(1.34653 -0.020221 0)
(1.36935 -0.0181328 1.6887e-19)
(1.38992 -0.0160961 0)
(1.40826 -0.01405 -3.39309e-19)
(1.42429 -0.0118846 3.40145e-19)
(1.43771 -0.00935124 3.41137e-19)
(1.44807 -0.00600559 3.42119e-19)
(1.45329 -0.000448442 3.44532e-19)
(1.45412 0.0101372 3.47075e-19)
(1.43281 0.0347331 0)
(-0.00709622 -0.036471 0)
(-0.0183337 -0.00279488 0)
(-0.0337132 0.0282754 -1.48374e-19)
(-0.0506878 0.0540389 -1.10165e-19)
(-0.0686195 0.0756202 9.31613e-20)
(-0.0872364 0.093366 8.36983e-20)
(-0.106723 0.107461 4.4602e-23)
(-0.127293 0.118225 0)
(-0.149043 0.126199 0)
(-0.171915 0.131963 0)
(-0.195763 0.13603 0)
(-0.220412 0.138807 0)
(-0.245699 0.140595 -1.73017e-19)
(-0.27148 0.141615 0)
(-0.297639 0.142029 5.3151e-20)
(-0.324081 0.141961 5.11302e-20)
(-0.350731 0.14151 0)
(-0.377532 0.140757 0)
(-0.404437 0.139767 0)
(-0.43141 0.138599 0)
(-0.458426 0.137302 4.31291e-20)
(-0.485464 0.135917 0)
(-0.512511 0.134479 -4.07106e-20)
(-0.539559 0.133019 0)
(-0.566605 0.131562 0)
(-0.593648 0.130128 0)
(-0.620692 0.128733 -7.3507e-20)
(-0.647744 0.127391 0)
(-0.674812 0.126113 3.52351e-20)
(-0.701907 0.124906 -6.88918e-20)
(-0.72904 0.123776 0)
(-0.756224 0.122727 0)
(-0.783468 0.121764 0)
(-0.810782 0.120887 3.20046e-20)
(-0.838171 0.120093 3.14517e-20)
(-0.865643 0.119375 0)
(-0.893206 0.118725 0)
(-0.920867 0.118135 -5.97021e-20)
(-0.948635 0.117597 -5.87607e-20)
(-0.976516 0.117102 5.7852e-20)
(-1.00452 0.116643 0)
(-1.03264 0.116212 0)
(-1.0609 0.115801 0)
(-1.08929 0.115404 0)
(-1.1178 0.115014 -5.3871e-20)
(-1.14646 0.114623 -5.29506e-20)
(-1.17524 0.114227 5.22088e-20)
(-1.20414 0.113819 0)
(-1.23318 0.113393 0)
(-1.26232 0.112944 0)
(-1.29158 0.112467 0)
(-1.32094 0.111957 -4.87466e-20)
(-1.35039 0.111411 0)
(-1.37992 0.110824 0)
(-1.40952 0.110193 -4.68372e-20)
(-1.43917 0.109514 -4.63844e-20)
(-1.46886 0.108785 0)
(-1.49857 0.108002 9.00633e-20)
(-1.52829 0.107164 -4.46078e-20)
(-1.558 0.106268 4.40348e-20)
(-1.58768 0.105312 0)
(-1.61731 0.104294 0)
(-1.64687 0.103213 0)
(-1.67633 0.102068 0)
(-1.70569 0.100856 4.12893e-20)
(-1.7349 0.0995772 8.12244e-20)
(-1.76395 0.0982298 4.02369e-20)
(-1.79282 0.0968123 -3.97183e-20)
(-1.82147 0.0953232 0)
(-1.84987 0.0937612 7.71076e-20)
(-1.87801 0.0921249 7.6098e-20)
(-1.90585 0.0904129 7.50937e-20)
(-1.93336 0.0886237 -7.40937e-20)
(-1.9605 0.0867555 0)
(-1.98725 0.0848063 -1.08277e-19)
(-2.01357 0.0827739 0)
(-2.03941 0.0806561 3.49373e-20)
(-2.06475 0.0784503 3.46699e-20)
(-2.08953 0.0761539 0)
(-2.11373 0.0737644 0)
(-2.13728 0.0712788 6.60889e-20)
(-2.16016 0.0686943 0)
(-2.18229 0.0660082 6.40351e-20)
(-2.20364 0.0632182 0)
(-2.22416 0.0603221 -6.19363e-20)
(-2.24377 0.0573179 -1.21877e-19)
(-2.26243 0.0542041 0)
(-2.28008 0.0509798 0)
(-2.29665 0.0476449 0)
(-2.31207 0.0441999 -5.64075e-20)
(-2.32629 0.0406461 0)
(-2.33924 0.0369851 -5.40483e-20)
(-2.35085 0.0332191 0)
(-2.36105 0.0293511 0)
(-2.36977 0.0253845 1.00626e-19)
(-2.37696 0.0213231 0)
(-2.38253 0.0171698 4.76646e-20)
(-2.38642 0.0129235 0)
(-2.38858 0.00857968 4.48835e-20)
(-2.3889 0.00415475 0)
(-2.38739 -0.000312839 0)
(-2.38398 -0.00480761 0)
(-2.37862 -0.00933792 1.15928e-19)
(-2.37124 -0.0139108 3.68574e-20)
(-2.36181 -0.0185302 0)
(-2.35026 -0.0231979 0)
(-2.33653 -0.0279135 0)
(-2.32056 -0.0326764 0)
(-2.30229 -0.0374849 -2.76698e-20)
(-2.28166 -0.0423366 5.19626e-20)
(-2.25861 -0.0472272 2.36158e-20)
(-2.23309 -0.0521511 -4.37283e-20)
(-2.20503 -0.0571017 -3.9441e-20)
(-2.17438 -0.0620711 -1.71087e-20)
(-2.1411 -0.0670502 0)
(-2.10514 -0.0720283 -2.58924e-20)
(-2.06646 -0.0769938 0)
(-2.02503 -0.0819343 1.62916e-20)
(-1.98081 -0.0868367 5.12051e-21)
(-1.93379 -0.091686 0)
(-1.88396 -0.0964658 -1.06848e-21)
(-1.83131 -0.101158 2.72704e-21)
(-1.77586 -0.105745 0)
(-1.71762 -0.110205 6.8629e-21)
(-1.65662 -0.114518 -3.1638e-20)
(-1.59292 -0.118666 0)
(-1.52657 -0.122627 0)
(-1.45764 -0.12638 0)
(-1.38622 -0.129902 0)
(-1.31242 -0.133169 -4.95349e-20)
(-1.23635 -0.136166 -5.71408e-20)
(-1.15815 -0.13887 0)
(-1.07797 -0.141257 0)
(-0.995966 -0.143314 0)
(-0.912326 -0.145024 0)
(-0.827244 -0.146366 0)
(-0.740923 -0.14734 0)
(-0.653577 -0.14793 -9.9714e-20)
(-0.565433 -0.148125 -1.84112e-21)
(-0.476723 -0.147932 0)
(-0.387692 -0.147341 0)
(-0.298557 -0.14638 -1.22084e-19)
(-0.209599 -0.145061 0)
(-0.120967 -0.143414 1.35863e-19)
(-0.0329946 -0.141432 1.39645e-19)
(0.0541962 -0.139073 0)
(0.139625 -0.136259 0)
(0.223354 -0.132946 -1.51545e-19)
(0.304867 -0.129249 -3.05577e-19)
(0.384338 -0.124913 0)
(0.461538 -0.120078 0)
(0.53643 -0.115151 0)
(0.608774 -0.110178 -1.65165e-19)
(0.678429 -0.105176 1.67612e-19)
(0.74529 -0.100156 0)
(0.809283 -0.0951295 3.42235e-19)
(0.870356 -0.090112 1.72324e-19)
(0.92847 -0.0851224 -3.50714e-19)
(0.983608 -0.0801808 0)
(1.03577 -0.0753068 0)
(1.08496 -0.0705205 -3.61885e-19)
(1.13122 -0.06584 -1.83269e-19)
(1.17458 -0.0612802 0)
(1.2151 -0.056857 0)
(1.25285 -0.0525828 0)
(1.28792 -0.0484689 0)
(1.32038 -0.0445234 -3.79316e-19)
(1.35035 -0.0407513 0)
(1.37792 -0.0371561 0)
(1.4032 -0.0337327 0)
(1.42631 -0.0304699 0)
(1.44734 -0.0273439 0)
(1.46636 -0.0243074 0)
(1.48342 -0.0212722 -3.92817e-19)
(1.49847 -0.0180761 0)
(1.51131 -0.0143863 0)
(1.52175 -0.00960772 -7.96434e-19)
(1.5284 -0.00218898 4.0071e-19)
(1.53353 0.0104607 -4.04132e-19)
(1.52778 0.0354527 4.07014e-19)
(-0.0137403 -0.00451992 0)
(-0.0299823 0.0365083 4.01584e-19)
(-0.0482546 0.0677163 0)
(-0.0677351 0.0933301 8.32096e-20)
(-0.0873139 0.115011 0)
(-0.106768 0.133243 0)
(-0.126347 0.148237 -5.664e-20)
(-0.146308 0.160223 0)
(-0.166817 0.169533 0)
(-0.187942 0.176559 0)
(-0.209676 0.181697 0)
(-0.231966 0.185305 0)
(-0.254736 0.187685 1.68886e-19)
(-0.277908 0.189084 8.12556e-20)
(-0.301408 0.1897 -7.83082e-20)
(-0.325171 0.189691 0)
(-0.349143 0.189185 0)
(-0.373281 0.188288 0)
(-0.397549 0.187088 0)
(-0.421919 0.18566 0)
(-0.44637 0.184066 6.46714e-20)
(-0.470887 0.182359 6.2941e-20)
(-0.495458 0.180585 -6.13323e-20)
(-0.520075 0.178781 5.98344e-20)
(-0.544735 0.176979 0)
(-0.569437 0.175204 0)
(-0.594182 0.173478 5.59566e-20)
(-0.618974 0.171816 0)
(-0.643818 0.170232 0)
(-0.668719 0.168735 5.27203e-20)
(-0.693685 0.167331 5.17019e-20)
(-0.718724 0.166024 5.07888e-20)
(-0.743841 0.164816 0)
(-0.769043 0.163705 0)
(-0.794335 0.162688 -4.83e-20)
(-0.819722 0.161758 0)
(-0.845211 0.160907 0)
(-0.870806 0.160126 4.61793e-20)
(-0.896513 0.159407 -4.53542e-20)
(-0.922336 0.158739 4.46957e-20)
(-0.94828 0.158113 0)
(-0.974348 0.157521 0)
(-1.00054 0.156952 8.58252e-20)
(-1.02686 0.156398 0)
(-1.05331 0.155849 8.35078e-20)
(-1.07988 0.155298 1.23665e-19)
(-1.10657 0.154737 -1.22026e-19)
(-1.13338 0.154156 8.0227e-20)
(-1.16031 0.15355 0)
(-1.18734 0.152912 0)
(-1.21447 0.152233 7.71426e-20)
(-1.24169 0.15151 3.8158e-20)
(-1.26899 0.150735 0)
(-1.29637 0.149904 0)
(-1.32379 0.149012 3.67225e-20)
(-1.35126 0.148055 7.23561e-20)
(-1.37876 0.147029 0)
(-1.40628 0.14593 -7.07065e-20)
(-1.43379 0.144756 6.966e-20)
(-1.46128 0.143502 -6.87864e-20)
(-1.48873 0.142167 0)
(-1.51613 0.140749 0)
(-1.54345 0.139244 0)
(-1.57067 0.137652 0)
(-1.59778 0.13597 0)
(-1.62475 0.134198 -6.39075e-20)
(-1.65155 0.132332 0)
(-1.67816 0.130371 0)
(-1.70457 0.128314 0)
(-1.73073 0.126157 -1.21261e-19)