# vtk DataFile Version 2.0
track0
ASCII
DATASET POLYDATA
POINTS 11900 float
-0.0205 0.001 1e-05
-0.0202034 0.0010001 1e-05
-0.0199069 0.00100035 1e-05
-0.0196103 0.00100072 1e-05
-0.0193137 0.0010012 1e-05
-0.0190172 0.00100179 1e-05
-0.0187132 0.00100302 1e-05
-0.0184093 0.00100345 1e-05
-0.0181054 0.00100385 1e-05
-0.0178015 0.00100422 1e-05
-0.0174976 0.00100457 1e-05
-0.0172058 0.00100548 1e-05
-0.016914 0.00100571 1e-05
-0.0166222 0.00100596 1e-05
-0.0163305 0.00100621 1e-05
-0.0160387 0.00100649 1e-05
-0.0157586 0.00100728 1e-05
-0.0154784 0.00100761 1e-05
-0.0151983 0.00100798 1e-05
-0.0149182 0.0010084 1e-05
-0.0146381 0.00100886 1e-05
-0.0143692 0.00100974 1e-05
-0.0141002 0.00101029 1e-05
-0.0138313 0.00101088 1e-05
-0.0135624 0.00101152 1e-05
-0.0132934 0.0010122 1e-05
-0.0130353 0.00101317 1e-05
-0.0127771 0.00101392 1e-05
-0.0125189 0.0010147 1e-05
-0.0122607 0.00101551 1e-05
-0.0120025 0.00101636 1e-05
-0.0117547 0.00101738 1e-05
-0.0115068 0.00101827 1e-05
-0.0112589 0.00101918 1e-05
-0.0110111 0.00102011 1e-05
-0.0107632 0.00102107 1e-05
-0.0105252 0.00102213 1e-05
-0.0102873 0.00102311 1e-05
-0.0100493 0.0010241 1e-05
-0.00981133 0.00102512 1e-05
-0.00957337 0.00102615 1e-05
-0.00934491 0.00102722 1e-05
-0.00911645 0.00102825 1e-05
-0.00888799 0.00102929 1e-05
-0.00865954 0.00103034 1e-05
-0.00843108 0.00103141 1e-05
-0.00821175 0.00103247 1e-05
-0.00799242 0.00103352 1e-05
-0.00777309 0.00103458 1e-05
-0.00755376 0.00103565 1e-05
-0.00733443 0.00103673 1e-05
-0.00719338 0.00103743 1e-05
-0.00705233 0.00103814 1e-05
-0.00691127 0.00103884 1e-05
-0.00677022 0.00103955 1e-05
-0.00663026 0.00104025 1e-05
-0.00656053 0.00104061 1e-05
-0.0064908 0.00104096 1e-05
-0.00642106 0.00104131 1e-05
-0.00635133 0.00104167 1e-05
-0.0062816 0.00104202 1e-05
-0.00607944 0.00104305 1e-05
-0.00587729 0.00104409 1e-05
-0.00567514 0.00104512 1e-05
-0.00547298 0.00104616 1e-05
-0.00527083 0.00104721 1e-05
-0.00507675 0.00104821 1e-05
-0.00488267 0.00104922 1e-05
-0.0046886 0.00105023 1e-05
-0.00449452 0.00105124 1e-05
-0.00430044 0.00105225 1e-05
-0.00411412 0.00105322 1e-05
-0.0039278 0.00105419 1e-05
-0.00374147 0.00105517 1e-05
-0.00355515 0.00105614 1e-05
-0.00336883 0.00105712 1e-05
-0.00318995 0.00105804 1e-05
-0.00301107 0.00105898 1e-05
-0.00283219 0.00105992 1e-05
-0.00265331 0.00106085 1e-05
-0.00247443 0.00106179 1e-05
-0.0023027 0.00106268 1e-05
-0.00213097 0.00106357 1e-05
-0.00195924 0.00106447 1e-05
-0.0017875 0.00106537 1e-05
-0.00161577 0.00106626 1e-05
-0.0014509 0.00106711 1e-05
-0.00128603 0.00106797 1e-05
-0.00112116 0.00106882 1e-05
-0.000956289 0.00106966 1e-05
-0.000791418 0.00107051 1e-05
-0.000633135 0.0010713 1e-05
-0.000474851 0.00107208 1e-05
-0.000316567 0.00107286 1e-05
-0.000158283 0.00107361 1e-05
1.35525e-20 0.00107435 1e-05
0.000105677 0.00107483 1e-05
0.000211355 0.0010753 1e-05
0.000317032 0.00107576 1e-05
0.00042271 0.00107621 1e-05
0.000528387 0.00107664 1e-05
0.000634886 0.00107706 1e-05
0.000741385 0.00107748 1e-05
0.000847885 0.00107789 1e-05
0.000954384 0.00107828 1e-05
0.00106088 0.00107866 1e-05
0.00116821 0.00107903 1e-05
0.00127554 0.00107939 1e-05
0.00138286 0.00107975 1e-05
0.00149019 0.00108009 1e-05
0.00159752 0.00108042 1e-05
0.00170568 0.00108073 1e-05
0.00181384 0.00108105 1e-05
0.001922 0.00108136 1e-05
0.00203016 0.00108165 1e-05
0.00213833 0.00108194 1e-05
0.00224733 0.00108221 1e-05
0.00235633 0.00108248 1e-05
0.00246533 0.00108274 1e-05
0.00257434 0.001083 1e-05
0.00268334 0.00108324 1e-05
0.00279319 0.00108347 1e-05
0.00290304 0.00108371 1e-05
0.00301289 0.00108394 1e-05
0.00312274 0.00108416 1e-05
0.00323259 0.00108437 1e-05
0.00334329 0.00108457 1e-05
0.003454 0.00108478 1e-05
0.0035647 0.00108498 1e-05
0.0036754 0.00108517 1e-05
0.00378611 0.00108536 1e-05
0.00389767 0.00108554 1e-05
0.00400924 0.00108571 1e-05
0.0041208 0.00108589 1e-05
0.00423237 0.00108606 1e-05
0.00434393 0.00108622 1e-05
0.00445636 0.00108637 1e-05
0.00456879 0.00108653 1e-05
0.00468123 0.00108667 1e-05
0.00479366 0.00108682 1e-05
0.00490609 0.00108696 1e-05
0.0050194 0.00108709 1e-05
0.0051327 0.00108722 1e-05
0.00524601 0.00108735 1e-05
0.00535932 0.00108747 1e-05
0.00547262 0.00108758 1e-05
0.00556966 0.00108768 1e-05
0.00566669 0.00108777 1e-05
0.00576373 0.00108786 1e-05
0.00586077 0.00108794 1e-05
0.00595356 0.00108802 1e-05
0.00597156 0.00108803 1e-05
0.00598956 0.00108805 1e-05
0.00600756 0.00108806 1e-05
0.00602556 0.00108808 1e-05
0.00604356 0.00108809 1e-05
0.00615863 0.00108818 1e-05
0.00627371 0.00108826 1e-05
0.00638878 0.00108834 1e-05
0.00650386 0.00108841 1e-05
0.00661893 0.00108848 1e-05
0.0067349 0.00108855 1e-05
0.00685087 0.00108861 1e-05
0.00696684 0.00108866 1e-05
0.00708281 0.00108871 1e-05
0.00719878 0.00108875 1e-05
0.00731565 0.00108879 1e-05
0.00743252 0.00108882 1e-05
0.00754939 0.00108885 1e-05
0.00766626 0.00108887 1e-05
0.00778313 0.00108889 1e-05
0.00790091 0.0010889 1e-05
0.00801869 0.00108891 1e-05
0.00813647 0.00108891 1e-05
0.00825425 0.0010889 1e-05
0.00837203 0.0010889 1e-05
0.00849073 0.00108887 1e-05
0.00860942 0.00108885 1e-05
0.00872812 0.00108882 1e-05
0.00884682 0.00108879 1e-05
0.00896551 0.00108875 1e-05
0.00908513 0.0010887 1e-05
0.00920475 0.00108864 1e-05
0.00932437 0.00108859 1e-05
0.00944398 0.00108852 1e-05
0.0095636 0.00108845 1e-05
0.00968415 0.00108836 1e-05
0.0098047 0.00108828 1e-05
0.00992525 0.00108819 1e-05
0.0100458 0.00108809 1e-05
0.0101663 0.00108799 1e-05
0.0102878 0.00108787 1e-05
0.0104093 0.00108775 1e-05
0.0105308 0.00108763 1e-05
0.0106523 0.0010875 1e-05
0.0107738 0.00108736 1e-05
0.0108962 0.00108719 1e-05
0.0110186 0.00108704 1e-05
0.0111411 0.00108688 1e-05
0.0112635 0.00108672 1e-05
0.0113859 0.00108654 1e-05
0.0115093 0.00108634 1e-05
0.0116327 0.00108615 1e-05
0.0117561 0.00108595 1e-05
0.0118795 0.00108575 1e-05
0.0120028 0.00108554 1e-05
0.0121272 0.00108529 1e-05
0.0122515 0.00108506 1e-05
0.0123759 0.00108482 1e-05
0.0125002 0.00108458 1e-05
0.0126245 0.00108433 1e-05
0.0127498 0.00108404 1e-05
0.0128752 0.00108377 1e-05
0.0130005 0.00108349 1e-05
0.0131258 0.00108321 1e-05
0.0132511 0.00108291 1e-05
0.0133774 0.00108258 1e-05
0.0135036 0.00108227 1e-05
0.0136299 0.00108195 1e-05
0.0137562 0.00108162 1e-05
0.0138825 0.00108128 1e-05
0.0140098 0.00108091 1e-05
0.014137 0.00108055 1e-05
0.0142643 0.00108018 1e-05
0.0143915 0.0010798 1e-05
0.0145188 0.00107942 1e-05
0.0146471 0.001079 1e-05
0.0147753 0.00107859 1e-05
0.0149036 0.00107818 1e-05
0.0150318 0.00107776 1e-05
0.0151601 0.00107732 1e-05
0.0152893 0.00107686 1e-05
0.0154186 0.0010764 1e-05
0.0155478 0.00107594 1e-05
0.0156771 0.00107547 1e-05
0.0158063 0.00107499 1e-05
0.0159366 0.00107448 1e-05
0.0160668 0.00107397 1e-05
0.0161971 0.00107345 1e-05
0.0163274 0.00107293 1e-05
0.0164576 0.0010724 1e-05
0.0165889 0.00107184 1e-05
0.0167201 0.00107128 1e-05
0.0168514 0.00107071 1e-05
0.0169827 0.00107014 1e-05
0.0171139 0.00106955 1e-05
0.0172462 0.00106894 1e-05
0.0173785 0.00106833 1e-05
0.0175108 0.00106771 1e-05
0.0176431 0.00106708 1e-05
0.0177754 0.00106644 1e-05
0.0179087 0.00106579 1e-05
0.018042 0.00106512 1e-05
0.0181753 0.00106445 1e-05
0.0183087 0.00106376 1e-05
0.018442 0.00106307 1e-05
0.0185763 0.00106236 1e-05
0.0187107 0.00106165 1e-05
0.018845 0.00106092 1e-05
0.0189794 0.00106018 1e-05
0.0191137 0.00105943 1e-05
0.0192491 0.00105867 1e-05
0.0193845 0.0010579 1e-05
0.0195199 0.00105711 1e-05
0.0196553 0.00105632 1e-05
0.0197907 0.00105551 1e-05
0.0199272 0.00105471 1e-05
0.0200636 0.00105388 1e-05
0.0202001 0.00105303 1e-05
0.0203365 0.00105218 1e-05
0.020473 0.00105132 1e-05
0.0206105 0.00105046 1e-05
0.020748 0.00104958 1e-05
0.0208855 0.00104868 1e-05
0.021023 0.00104777 1e-05
0.0211606 0.00104686 1e-05
0.0212991 0.00104595 1e-05
0.0214377 0.00104501 1e-05
0.0215763 0.00104405 1e-05
0.0217149 0.00104308 1e-05
0.0218535 0.00104211 1e-05
0.0219931 0.00104115 1e-05
0.0221328 0.00104016 1e-05
0.0222724 0.00103914 1e-05
0.0224121 0.00103811 1e-05
0.0225517 0.00103709 1e-05
0.0226925 0.00103607 1e-05
0.0228332 0.00103503 1e-05
0.022974 0.00103395 1e-05
0.0231147 0.00103286 1e-05
0.0232555 0.00103179 1e-05
0.0233973 0.00103072 1e-05
0.0235391 0.00102962 1e-05
0.023681 0.00102849 1e-05
0.0238228 0.00102734 1e-05
0.0239647 0.00102622 1e-05
0.0241076 0.00102509 1e-05
0.0242505 0.00102393 1e-05
0.0243935 0.00102275 1e-05
0.0245364 0.00102155 1e-05
0.0246794 0.00102036 1e-05
0.0248234 0.00101919 1e-05
0.0249675 0.00101797 1e-05
0.0251115 0.00101673 1e-05
0.0252556 0.00101548 1e-05
0.0253996 0.00101424 1e-05
0.0255448 0.001013 1e-05
0.02569 0.00101174 1e-05
0.0258351 0.00101044 1e-05
0.0259803 0.00100913 1e-05
0.0261255 0.00100783 1e-05
0.0262718 0.00100655 1e-05
0.0264181 0.00100523 1e-05
0.0265644 0.00100387 1e-05
0.0267107 0.0010025 1e-05
0.026857 0.00100115 1e-05
0.0270044 0.000999812 1e-05
0.0271519 0.000998434 1e-05
0.0272993 0.000997022 1e-05
0.0274468 0.000995601 1e-05
0.0275942 0.000994196 1e-05
0.0277428 0.000992798 1e-05
0.0278914 0.000991364 1e-05
0.0280399 0.000989895 1e-05
0.0281885 0.00098842 1e-05
0.0283371 0.000986959 1e-05
0.0284869 0.000985504 1e-05
0.0286366 0.000984014 1e-05
0.0287863 0.000982492 1e-05
0.0289361 0.000980963 1e-05
0.0290858 0.000979446 1e-05
0.0292367 0.000977933 1e-05
0.0293876 0.000976385 1e-05
0.0295385 0.00097481 1e-05
0.0296894 0.000973228 1e-05
0.0298403 0.000971653 1e-05
0.0299924 0.000970082 1e-05
0.0301445 0.000968476 1e-05
0.0302966 0.000966846 1e-05
0.0304486 0.000965208 1e-05
0.0306007 0.000963575 1e-05
0.030754 0.000961945 1e-05
0.0309072 0.000960279 1e-05
0.0310605 0.000958594 1e-05
0.0312138 0.0009569 1e-05
0.031367 0.000955208 1e-05
0.0315215 0.000953516 1e-05
0.0316759 0.00095179 1e-05
0.0318304 0.000950048 1e-05
0.0319848 0.000948297 1e-05
0.0321393 0.000946543 1e-05
0.0322949 0.00094479 1e-05
0.0324506 0.000943002 1e-05
0.0326062 0.000941201 1e-05
0.0327619 0.000939391 1e-05
0.0329175 0.000937575 1e-05
0.0330744 0.000935758 1e-05
0.0332313 0.000933906 1e-05
0.0333881 0.000932045 1e-05
[...]
POINT_DATA 11900
 FIELD attributes 1
U 3 11900 float
9.9991 	0.0033835 	0 9.99878 	0.00857282 	0 9.99915 	0.0123336 	0 9.99953 	0.0160846 	0 9.99991 	0.0198258 	0 10.003 	0.0406837 	0 10.0034 	0.0140599 	0 10.0062 	0.0131943 	0 10.009 	0.012325 	0 10.0118 	0.011452 	0 10.0151 	0.0312108 	0 10.0176 	0.00792116 	0 10.0202 	0.0083954 	0 10.0227 	0.00887283 	0 10.0253 	0.00935347 	0 10.0255 	0.0285404 	0 10.0287 	0.0116208 	0 10.0301 	0.0132687 	0 10.0315 	0.0149273 	0 10.0329 	0.0165966 	0 10.0303 	0.032814 	0 10.0348 	0.0205606 	0 10.0356 	0.0221639 	0 10.0365 	0.0237763 	0 10.0373 	0.0253978 	0 10.033 	0.0376167 	0 10.0383 	0.0290505 	0 10.0387 	0.0303342 	0 10.0392 	0.031624 	0 10.0397 	0.0329201 	0 10.0344 	0.0415092 	0 10.0398 	0.0358828 	0 10.0399 	0.0368865 	0 10.04 	0.0378941 	0 10.0401 	0.0389057 	0 10.0346 	0.0446032 	0 10.0396 	0.0411832 	0 10.0395 	0.041953 	0 10.0393 	0.0427252 	0 10.0392 	0.0435 	0 10.0342 	0.0470175 	0 10.0383 	0.0451669 	0 10.038 	0.0457397 	0 10.0376 	0.046314 	0 10.0373 	0.0468898 	0 10.0335 	0.0488299 	0 10.0362 	0.0480474 	0 10.0358 	0.0484592 	0 10.0353 	0.0488718 	0 10.0348 	0.0492853 	0 10.0328 	0.0501291 	0 10.0339 	0.049945 	0 10.0335 	0.0501345 	0 10.0331 	0.0503242 	0 10.0327 	0.0505142 	0 10.0323 	0.0507028 	0 10.0321 	0.0507949 	0 10.032 	0.050887 	0 10.0318 	0.0509792 	0 10.0316 	0.0510715 	0 10.0313 	0.0510651 	0 10.0308 	0.051318 	0 10.0301 	0.0514941 	0 10.0295 	0.0516704 	0 10.0288 	0.051847 	0 10.0277 	0.0516951 	0 10.0277 	0.0520508 	0 10.027 	0.0521482 	0 10.0263 	0.0522457 	0 10.0256 	0.0523433 	0 10.0239 	0.0519598 	0 10.0246 	0.0523807 	0 10.0239 	0.0524211 	0 10.0232 	0.0524614 	0 10.0225 	0.0525018 	0 10.0202 	0.0519657 	0 10.0216 	0.0524321 	0 10.0209 	0.052442 	0 10.0202 	0.0524519 	0 10.0196 	0.0524618 	0 10.0167 	0.051839 	0 10.019 	0.0523268 	0 10.0185 	0.0523166 	0 10.018 	0.0523065 	0 10.0174 	0.0522963 	0 10.014 	0.0516156 	0 10.0174 	0.0519132 	0 10.0171 	0.05164 	0 10.0169 	0.0513668 	0 10.0166 	0.0510935 	0 10.0126 	0.0500964 	0 10.0172 	0.049802 	0 10.0173 	0.0488097 	0 10.0175 	0.047817 	0 10.0176 	0.0468239 	0 10.013 	0.0451818 	0 10.0181 	0.0448945 	-3.0176e-21 10.0179 	0.043659 	-8.07491e-21 10.0177 	0.0424231 	-1.3133e-20 10.0175 	0.0411867 	-1.81919e-20 10.0125 	0.0392757 	-2.35992e-20 10.0172 	0.0392883 	-3.66506e-20 10.0167 	0.0381754 	-3.65163e-20 10.0161 	0.037062 	-3.63777e-20 10.0156 	0.0359481 	-3.62349e-20 10.0105 	0.0339532 	-2.23262e-20 10.0148 	0.0342047 	-2.37701e-20 10.0141 	0.0331357 	-2.68972e-20 10.0135 	0.0320661 	-3.00261e-20 10.0128 	0.0309958 	-3.31568e-20 10.0078 	0.0288486 	-3.6854e-20 10.0116 	0.0292881 	-4.82905e-20 10.0107 	0.0283497 	-4.81548e-20 10.0098 	0.0274106 	-4.80162e-20 10.009 	0.0264707 	-4.78747e-20 10.004 	0.0243601 	-3.85619e-20 10.0073 	0.0249315 	-2.80614e-20 10.0061 	0.0241944 	-1.69306e-20 10.005 	0.0234567 	-5.80024e-21 10.0038 	0.0227184 	5.32963e-21 9.99907 	0.0208373 	1.65346e-20 10.0016 	0.0214004 	1.06752e-20 10.0002 	0.0208158 	6.6937e-21 9.99885 	0.0202307 	2.71236e-21 9.99746 	0.019645 	-1.26881e-21 9.99291 	0.0180582 	-1.71232e-21 9.99473 	0.0184906 	4.74813e-21 9.9931 	0.017993 	5.47994e-21 9.99146 	0.0174951 	6.20908e-21 9.98982 	0.0169967 	6.93557e-21 9.98555 	0.0157103 	9.50783e-22 9.98657 	0.0159527 	1.70917e-20 9.98467 	0.0155027 	2.04701e-20 9.98276 	0.0150522 	2.38439e-20 9.98085 	0.0146015 	2.72133e-20 9.97687 	0.0135999 	1.8665e-20 9.977 	0.0136396 	1.5994e-20 9.9748 	0.0132134 	1.19074e-20 9.97259 	0.0127869 	7.82109e-21 9.97038 	0.01236 	3.73499e-21 9.96674 	0.0116081 	-7.21239e-22 9.96585 	0.0114581 	5.49405e-21 9.96332 	0.0110394 	1.14932e-20 9.96079 	0.0106205 	1.74927e-20 9.95826 	0.0102013 	2.34925e-20 9.95502 	0.00965037 	2.93257e-20 9.95339 	0.00940022 	2.45001e-20 9.95095 	0.00904211 	1.95118e-20 9.9485 	0.00868383 	1.45236e-20 9.94605 	0.0083254 	9.53574e-21 9.9437 	0.00798248 	4.76604e-21 9.94324 	0.00791544 	3.90001e-21 9.94278 	0.00784839 	3.03404e-21 9.94232 	0.00778134 	2.16814e-21 9.94186 	0.00771428 	1.3023e-21 9.9406 	0.00764555 	9.54061e-23 9.93807 	0.00721942 	-6.6234e-21 9.93478 	0.00678739 	-1.30054e-20 9.93148 	0.00635513 	-1.939e-20 9.92817 	0.00592266 	-2.57772e-20 9.91874 	0.00541566 	-2.96247e-20 9.92093 	0.00507004 	-1.77957e-20 9.91723 	0.00462806 	-5.96548e-21 9.91352 	0.00418589 	5.86472e-21 9.90981 	0.0037435 	1.76949e-20 9.89416 	0.00306703 	2.87013e-20 9.90146 	0.0028721 	3.83526e-20 9.89733 	0.00241812 	4.36867e-20 9.8932 	0.00196393 	4.90229e-20 9.88906 	0.00150955 	5.43611e-20 9.86681 	0.00060327 	5.18114e-20 9.8795 	0.000601281 	4.56959e-20 9.87493 	0.000134209 	3.96319e-20 9.87035 	-0.000333061 	3.35668e-20 9.86577 	-0.00080053 	2.75005e-20 9.83667 	-0.00196812 	2.39439e-20 9.8549 	-0.0017588 	1.20033e-20 9.84987 	-0.00223841 	-2.01734e-21 9.84483 	-0.00271822 	-1.60377e-20 9.83979 	-0.00319825 	-3.00577e-20 9.80376 	-0.00463243 	-3.89259e-20 9.82754 	-0.00421418 	-2.57811e-20 9.82204 	-0.00470524 	-2.50502e-20 9.81653 	-0.00519653 	-2.43145e-20 9.81102 	-0.00568806 	-2.3574e-20 9.76813 	-0.00737328 	-3.91627e-20 9.79733 	-0.00676541 	-3.3187e-20 9.79136 	-0.00726701 	-2.39399e-20 9.78538 	-0.00776886 	-1.4692e-20 9.77939 	-0.00827096 	-5.44349e-21 9.72989 	-0.0101758 	0 9.76422 	-0.00941029 	-2.82883e-21 9.75778 	-0.00992171 	-7.71976e-21 9.75133 	-0.0104334 	-1.26103e-20 9.74488 	-0.0109454 	-1.75004e-20 9.68916 	-0.0130268 	-1.75232e-20 9.72822 	-0.0121444 	-1.99471e-20 9.72132 	-0.0126651 	-1.98371e-20 9.7144 	-0.0131862 	-1.97262e-20 9.70748 	-0.0137076 	-1.96145e-20 9.6461 	-0.0159147 	-1.84576e-20 9.68936 	-0.0149615 	-1.71269e-20 9.68201 	-0.0154912 	-1.2071e-20 9.67464 	-0.0160214 	-7.01478e-21 9.66727 	-0.0165519 	-1.95811e-21 9.6009 	-0.0188292 	-2.08733e-21 9.64773 	-0.0178542 	-3.29994e-21 9.63994 	-0.0183928 	-1.22126e-20 9.63214 	-0.0189319 	-2.11245e-20 9.62433 	-0.0194714 	-3.00356e-20 9.55373 	-0.0217614 	-3.27655e-20 9.60344 	-0.0208142 	-3.18989e-22 9.59523 	-0.0213617 	5.83013e-22 9.58702 	-0.0219097 	1.49067e-21 9.5788 	-0.0224582 	2.40401e-21 9.50482 	-0.0247031 	-3.17349e-20 9.55665 	-0.0238328 	-2.93671e-20 9.54806 	-0.0243891 	-2.00917e-20 9.53945 	-0.0249459 	-1.08155e-20 9.53083 	-0.0255032 	-1.53849e-21 9.45436 	-0.0276469 	0 9.50756 	-0.0269004 	0 9.4986 	-0.0274653 	0 9.48962 	-0.0280308 	0 9.48063 	-0.0285969 	0 9.40257 	-0.0305856 	0 9.45638 	-0.0300073 	5.55976e-22 9.44707 	-0.0305806 	1.0149e-20 9.43775 	-0.0311545 	1.9741e-20 9.42841 	-0.0317291 	2.93321e-20 9.34965 	-0.0335124 	3.89481e-20 9.40169 	-0.0331682 	2.90379e-20 9.39372 	-0.0337246 	3.77965e-20 9.38408 	-0.0343065 	4.70679e-20 9.36947 	-0.0349572 	5.68623e-20 9.2958 	-0.036421 	7.29287e-20 9.34226 	-0.0363712 	5.61432e-20 9.3388 	-0.0368867 	4.50984e-20 9.32886 	-0.0374759 	3.47938e-20 9.30939 	-0.038157 	2.72258e-20 9.24122 	-0.039305 	3.36706e-20 9.28224 	-0.0395354 	2.67965e-20 9.28256 	-0.0400557 	1.42033e-20 9.27236 	-0.0406514 	1.33157e-22 9.24888 	-0.0413108 	-1.07972e-20 9.18609 	-0.0421577 	-1.2421e-20 9.2219 	-0.0426513 	3.3435e-20 9.22529 	-0.0432199 	4.78211e-20 9.21484 	-0.0438209 	4.8804e-20 9.18818 	-0.0444091 	3.37387e-20 9.13058 	-0.0449723 	-1.19749e-20 9.16147 	-0.0457096 	-1.00833e-20 9.16724 	-0.0463666 	-6.73048e-21 9.15658 	-0.0469715 	-2.42228e-21 9.12753 	-0.0474426 	0 9.07487 	-0.0477416 	0 9.10116 	-0.0487015 	0 9.10868 	-0.0494834 	0 9.09783 	-0.0500909 	0 9.06711 	-0.0504041 	0 9.01911 	-0.050461 	0 9.04114 	-0.0516218 	0 9.04985 	-0.0525608 	0 9.03883 	-0.0531699 	0 9.00712 	-0.0532904 	0 8.96345 	-0.0531284 	0 8.98158 	-0.0544677 	0 8.991 	-0.055591 	1.88082e-21 8.97983 	-0.0562008 	8.21272e-21 8.94769 	-0.0560994 	2.21284e-20 8.90801 	-0.0557424 	3.87679e-20 8.92262 	-0.057237 	1.50039e-19 8.93232 	-0.0585658 	2.39852e-19 8.92104 	-0.0591753 	2.37253e-19 8.88895 	-0.058829 	1.41837e-19 8.85292 	-0.0583009 	2.87798e-20 8.86436 	-0.0599276 	-2.79329e-20 8.87401 	-0.0614775 	-8.08461e-20 8.86263 	-0.0620854 	-8.81791e-20 8.831 	-0.0614779 	-5.00567e-20 8.79827 	-0.0608026 	-9.41143e-21 8.80691 	-0.0625386 	-7.22029e-21 8.81548 	-0.0642765 	-5.02652e-21 8.80373 	-0.0648445 	8.72618e-21 8.77395 	-0.0640461 	1.51062e-20 8.74418 	-0.0632471 	2.14875e-20 8.75033 	-0.0650705 	1.45632e-20 8.75641 	-0.0668958 	7.63483e-21 8.74499 	-0.0674339 	1.81797e-20 8.71785 	-0.0665348 	4.81289e-20 8.69074 	-0.0656351 	7.80796e-20 8.69471 	-0.067525 	1.3045e-19 8.69861 	-0.069417 	1.82817e-19 8.68756 	-0.0699248 	1.69388e-19 8.66277 	-0.068947 	9.81282e-20 8.63801 	-0.0679684 	2.6866e-20 8.64009 	-0.0699056 	1.57475e-20 8.6421 	-0.0718447 	4.6324e-21 8.63147 	-0.0723226 	-6.68131e-21 8.60876 	-0.0712868 	-1.87447e-20 8.58608 	-0.0702501 	-3.08094e-20 8.58652 	-0.0722168 	-1.84366e-20 8.58689 	-0.0741855 	-6.06124e-21 8.57672 	-0.0746342 	4.32502e-21 8.55584 	-0.0735596 	1.34197e-20 8.535 	-0.0724841 	2.2516e-20 8.53403 	-0.0744645 	1.29688e-20 8.53298 	-0.0764469 	3.41818e-21 8.5233 	-0.0768676 	7.11208e-21 8.50404 	-0.0757719 	1.63357e-20 8.48481 	-0.0746753 	2.55564e-20 8.48263 	-0.0766556 	5.72097e-20 8.48037 	-0.0786379 	8.88696e-20 8.4712 	-0.0790321 	8.53341e-20 8.45336 	-0.0779312 	4.25926e-20 8.43555 	-0.0768294 	-1.53885e-22 8.43233 	-0.0787979 	3.79582e-21 8.42904 	-0.0807683 	7.75484e-21 8.4204 	-0.0811378 	-1.16226e-20 8.40381 	-0.0800457 	-2.96915e-20 8.38724 	-0.0789528 	-4.77595e-20 8.38315 	-0.0808998 	-1.48748e-19 8.37888 	-0.0828117 	-2.47298e-19 8.37051 	-0.0831229 	-2.39628e-19 8.35539 	-0.0821244 	-1.38656e-19 8.33992 	-0.0810526 	-3.25198e-20 8.33507 	-0.0829703 	-1.98954e-20 8.32965 	-0.084643 	-7.7893e-21 8.32141 	-0.0849574 	1.464e-21 8.30809 	-0.0841764 	1.62041e-20 8.2936 	-0.0831362 	3.22414e-20 8.28811 	-0.0850189 	5.46009e-20 8.28183 	-0.0864538 	6.74483e-20 8.27373 	-0.0867732 	5.66666e-20 8.26191 	-0.0862115 	3.07202e-20 8.24828 	-0.0852113 	-2.76384e-21 8.24224 	-0.0870549 	-8.66579e-20 8.23536 	-0.088258 	-1.35415e-19 8.22738 	-0.0885838 	-1.36118e-19 8.21682 	-0.0882392 	-1.01428e-19 8.20395 	-0.0872856 	-3.4618e-20 8.19745 	-0.0890878 	-2.47322e-20 8.19017 	-0.0900679 	-2.20149e-20 8.1823 	-0.0904017 	-2.49303e-20 8.17279 	-0.0902686 	-3.1591e-20 8.16061 	-0.0893668 	-4.44135e-20 8.1537 	-0.0911265 	-1.08134e-19 8.1462 	-0.0918952 	-1.24485e-19 8.13844 	-0.0922386 	-1.20504e-19 8.1298 	-0.0923097 	-1.0238e-19 8.11822 	-0.0914636 	-3.66659e-20 8.11098 	-0.0931815 	-2.69805e-20 8.10339 	-0.0937521 	-1.7698e-20 8.09574 	-0.0941071 	-8.4919e-21 8.0878 	-0.0943738 	6.65393e-22 8.07678 	-0.0935861 	9.25154e-21 8.06924 	-0.095264 	1.2973e-22 8.06169 	-0.0956507 	-2.59767e-21 8.05413 	-0.0960191 	-5.23305e-21 8.04655 	-0.0963876 	-7.86868e-21 8.03626 	-0.0957443 	9.50904e-21 8.02851 	-0.0972183 	2.52514e-20 8.02106 	-0.0976014 	3.59827e-20 8.01358 	-0.0979847 	4.67109e-20 8.00609 	-0.0983682 	5.74361e-20 7.99662 	-0.0979469 	4.55979e-20 7.9888 	-0.0992139 	5.92019e-20 7.98142 	-0.0996133 	6.13054e-20 7.97403 	-0.100013 	6.34073e-20 7.96662 	-0.100413 	6.55075e-20 7.95784 	-0.100203 	4.38894e-20 7.95004 	-0.101278 	4.01941e-20 7.94274 	-0.101695 	2.88911e-20 7.93543 	-0.102113 	1.75894e-20 7.92809 	-0.10253 	6.28891e-21 7.91988 	-0.102521 	-3.75314e-21 7.91219 	-0.103418 	0 7.90496 	-0.103854 	0 7.89771 	-0.104291 	0 7.89044 	-0.104728 	0 7.88269 	-0.104908 	0 7.87519 	-0.105642 	3.46626e-21 7.86802 	-0.106099 	8.14809e-21 7.86084 	-0.106556 	1.28305e-20 7.85363 	-0.107013 	1.75134e-20 7.84624 	-0.107374 	2.13059e-20 7.84159 	-0.107782 	2.19191e-20 7.83708 	-0.108085 	2.21144e-20 7.83257 	-0.108388 	2.23102e-20 7.82805 	-0.108692 	2.25065e-20 7.82364 	-0.108987 	2.2698e-20 7.82087 	-0.109166 	2.30585e-20 7.81811 	-0.109344 	2.34196e-20 7.81533 	-0.109522 	2.37811e-20 7.81256 	-0.1097 	2.41431e-20 7.81019 	-0.109823 	2.24017e-20 7.80261 	-0.110378 	1.37257e-20 7.79522 	-0.110883 	4.7456e-21 7.7878 	-0.111387 	-4.23446e-21 7.78037 	-0.111892 	-1.32145e-20 7.7744 	-0.112196 	-2.10366e-20 7.7663 	-0.112908 	-2.671e-20 7.75895 	-0.113437 	-2.37027e-20 7.75157 	-0.113965 	-2.07e-20 7.74417 	-0.114494 	-1.7702e-20 7.73929 	-0.114681 	-1.2067e-21 7.73068 	-0.115547 	-1.5161e-20 7.72336 	-0.1161 	-1.21474e-20 7.71601 	-0.116653 	-9.1399e-21 7.70864 	-0.117207 	-6.13859e-21 7.70482 	-0.117284 	1.84682e-20 7.6957 	-0.118299 	1.11619e-20 7.6884 	-0.118878 	-1.24087e-21 7.68108 	-0.119457 	-1.36429e-20 7.67373 	-0.120037 	-2.60442e-20 7.67093 	-0.12001 	-3.50622e-20 7.66131 	-0.12117 	-2.76653e-20 7.65403 	-0.121777 	-2.70516e-20 7.64672 	-0.122384 	-2.64349e-20 7.63939 	-0.122991 	-2.58153e-20 7.63758 	-0.122867 	-3.36458e-20 7.62758 	-0.124141 	-2.49117e-20 7.62019 	-0.124805 	-1.2318e-20 7.61289 	-0.125441 	4.60493e-22 7.60645 	-0.125961 	1.18393e-20 7.60471 	-0.125862 	1.57543e-20 7.59479 	-0.127148 	4.48634e-20 7.58684 	-0.127971 	5.30277e-20 7.57954 	-0.128637 	5.40838e-20 7.57415 	-0.129052 	4.44047e-20 7.5723 	-0.129003 	1.49252e-20 7.56243 	-0.130303 	1.06639e-20 7.55393 	-0.131281 	1.19105e-22 7.54662 	-0.131978 	-1.59107e-20 7.54224 	-0.132294 	-3.41206e-20 7.54027 	-0.132297 	-5.41234e-20 7.53045 	-0.133612 	-1.312e-19 7.5214 	-0.134742 	-1.84926e-19 7.51408 	-0.135472 	-1.88173e-19 7.51068 	-0.135696 	-1.30885e-19 7.50858 	-0.13575 	-5.34037e-20 7.49881 	-0.137082 	-3.30131e-20 7.48922 	-0.138362 	-1.36891e-20 7.48188 	-0.139125 	-4.7332e-21 7.47942 	-0.139262 	-7.8973e-21 7.47719 	-0.139368 	-1.16344e-20 7.46745 	-0.140719 	-3.93062e-20 7.45765 	-0.142071 	-6.69762e-20 7.45077 	-0.142839 	-6.68952e-20 7.44841 	-0.142998 	-3.8838e-20 7.44605 	-0.143157 	-1.07797e-20 7.43633 	-0.144529 	-6.67846e-21 7.42656 	-0.145901 	-2.57562e-21 7.42012 	-0.146699 	0 7.41762 	-0.146911 	0 7.41511 	-0.147124 	0 7.40541 	-0.148518 	0 7.39565 	-0.149913 	0 7.38964 	-0.150743 	-1.39706e-21 7.38699 	-0.151009 	-4.9958e-21 7.38433 	-0.151276 	-8.59434e-21 7.37464 	-0.152695 	-3.5175e-20 7.36489 	-0.154115 	-6.17538e-20 7.35928 	-0.154979 	-6.11902e-20 7.35648 	-0.155301 	-3.0659e-20 7.35366 	-0.155622 	-1.26564e-22 7.34396 	-0.157069 	3.00646e-20 7.33444 	-0.158488 	5.87309e-20 7.32924 	-0.159363 	5.72864e-20 7.32603 	-0.159793 	2.70188e-20 7.32305 	-0.160171 	-6.64461e-21 7.31334 	-0.161647 	-2.81212e-21 7.30485 	-0.162965 	-4.96279e-23 7.29955 	-0.163884 	-1.32491e-23 7.29561 	-0.164495 	-4.50283e-21 7.29246 	-0.164929 	-1.1585e-20 7.28273 	-0.166436 	-3.75093e-21 7.27525 	-0.167659 	0 7.26983 	-0.168622 	0 7.26517 	-0.169411 	2.52748e-21 7.26184 	-0.169903 	9.37068e-21 7.25208 	-0.171443 	1.7764e-21 7.24557 	-0.172577 	-5.67231e-21 7.24003 	-0.173586 	-1.3078e-20 7.23465 	-0.174552 	-1.98304e-20 7.23113 	-0.175103 	-2.03328e-20 7.2214 	-0.176669 	-7.70344e-20 7.21577 	-0.177726 	-7.48539e-20 7.2101 	-0.178783 	-7.26598e-20 7.2044 	-0.179841 	-7.04521e-20 7.2003 	-0.180535 	-2.7296e-20 7.19158 	-0.182009 	-3.40991e-21 7.18581 	-0.183116 	1.77267e-21 7.18 	-0.184223 	6.9434e-21 7.17416 	-0.185329 	1.21023e-20 7.1693 	-0.18621 	8.48432e-21 7.16155 	-0.187596 	3.78082e-21 7.15564 	-0.188754 	1.08896e-20 7.14968 	-0.189912 	1.80008e-20 7.14368 	-0.19107 	2.51144e-20 7.13806 	-0.192135 	3.22783e-20 7.13301 	-0.193088 	4.39229e-20 7.12871 	-0.193947 	4.7248e-20 7.12438 	-0.194807 	5.05668e-20 7.12003 	-0.195666 	5.38791e-20 7.11587 	-0.196485 	5.7029e-20 7.11394 	-0.196843 	5.86303e-20 7.11201 	-0.197201 	6.02309e-20 7.11007 	-0.197559 	6.18308e-20 7.10813 	-0.197917 	6.343e-20 7.10622 	-0.198238 	6.56454e-20 7.09983 	-0.199535 	5.29426e-20 7.09327 	-0.200796 	4.32667e-20 7.08665 	-0.202056 	3.35713e-20 7.07999 	-0.203317 	2.38565e-20 7.07343 	-0.204418 	2.92582e-20 7.06729 	-0.205893 	3.58395e-20 7.06054 	-0.207208 	3.04458e-20 7.05374 	-0.208524 	2.50606e-20 7.04689 	-0.20984 	1.9684e-20 7.04024 	-0.210875 	7.75282e-23 7.03434 	-0.212526 	1.19378e-21 7.02739 	-0.213898 	7.05987e-21 7.0204 	-0.21527 	1.2923e-20 7.01335 	-0.216639 	1.87833e-20 7.00658 	-0.217613 	2.46534e-20 7.00074 	-0.219389 	1.79591e-20 6.99377 	-0.22087 	1.62048e-20 6.98656 	-0.222298 	1.53329e-20 6.97941 	-0.223598 	1.77587e-20 6.97241 	-0.224637 	2.69381e-20 6.96634 	-0.226463 	4.1944e-20 6.95962 	-0.228129 	5.01762e-20 6.95218 	-0.229614 	5.08045e-20 6.94489 	-0.230847 	4.06551e-20 6.93766 	-0.23195 	2.49251e-20 6.93134 	-0.233827 	1.5595e-20 6.92486 	-0.235677 	7.38347e-21 6.91719 	-0.237219 	1.20289e-20 6.90975 	-0.238386 	2.30146e-20 6.90225 	-0.239552 	3.40064e-20 6.89568 	-0.24148 	-2.39911e-21 6.88904 	-0.243408 	-3.88122e-20 6.88161 	-0.244986 	-3.89745e-20 6.8739 	-0.246215 	-1.46144e-21 6.86614 	-0.247445 	3.60511e-20 6.85931 	-0.249423 	4.39529e-20 6.8524 	-0.251401 	5.18486e-20 6.84529 	-0.253042 	4.77615e-20 6.8373 	-0.254333 	3.0072e-20 6.82925 	-0.255624 	1.23779e-20 6.82214 	-0.257652 	-1.66182e-20 6.81496 	-0.259653 	-4.35052e-20 6.80793 	-0.261325 	-4.48674e-20 6.79986 	-0.262734 	-3.32279e-20 6.79152 	-0.264084 	-1.87404e-20 6.78411 	-0.266161 	-1.01408e-20 6.77672 	-0.268077 	-5.53776e-21 6.76938 	-0.269803 	-5.68981e-21 6.76154 	-0.271412 	-8.70214e-21 6.75289 	-0.27282 	-1.66158e-20 6.74517 	-0.274944 	-8.19026e-21 6.73754 	-0.276773 	-2.55784e-21 6.72988 	-0.27855 	2.57251e-21 6.72214 	-0.280326 	7.70281e-21 6.71329 	-0.281822 	6.35441e-21 6.70529 	-0.283905 	2.58202e-20 6.69736 	-0.285731 	2.98932e-20 6.68935 	-0.287556 	3.39589e-20 6.68128 	-0.289381 	3.80172e-20 6.67266 	-0.29108 	3.32147e-20 6.66596 	-0.292709 	3.21814e-20 6.65927 	-0.294223 	3.09736e-20 6.65253 	-0.295737 	2.97715e-20 6.64575 	-0.29725 	2.85752e-20 6.63934 	-0.298669 	2.74588e-20 6.63779 	-0.299046 	2.70482e-20 6.63623 	-0.299422 	2.66379e-20 6.63468 	-0.299799 	2.62277e-20 6.63312 	-0.300175 	2.58178e-20 6.6315 	-0.300521 	2.43778e-20 6.62389 	-0.302471 	2.2989e-20 6.61603 	-0.304386 	2.20131e-20 6.60811 	-0.306302 	2.10308e-20 6.60012 	-0.308216 	2.00421e-20 6.5917 	-0.309949 	2.16885e-20 6.58462 	-0.312106 	2.95882e-20 6.57641 	-0.314061 	3.02743e-20 6.56813 	-0.316016 	3.09666e-20 6.55978 	-0.31797 	3.16651e-20 6.5507 	-0.319591 	1.8985e-20 6.54401 	-0.321929 	1.37988e-20 6.53557 	-0.323945 	1.06641e-20 6.52692 	-0.325937 	7.6837e-21 6.51796 	-0.32781 	6.33286e-21 6.50842 	-0.329432 	8.50067e-21 6.50134 	-0.331797 	5.88787e-21 6.49345 	-0.334024 	4.09007e-21 6.48441 	-0.336048 	3.48356e-21 6.47475 	-0.337797 	1.42217e-21 6.46483 	-0.339455 	-1.11799e-21 6.45733 	-0.341845 	1.66522e-22 6.44975 	-0.344235 	1.44569e-21 6.44042 	-0.346261 	8.0571e-22 6.43018 	-0.347952 	-1.77392e-21 6.41987 	-0.349644 	-4.35836e-21 6.41194 	-0.352055 	-3.08886e-21 6.40393 	-0.354465 	-1.82489e-21 6.39484 	-0.356541 	0 6.3842 	-0.358261 	0 6.37348 	-0.359981 	0 6.36512 	-0.362409 	0 6.35657 	-0.364786 	0 6.34731 	-0.366861 	0 6.33676 	-0.368704 	0 6.32562 	-0.370449 	0 6.31682 	-0.37289 	0 6.30746 	-0.37511 	0 6.29775 	-0.377201 	0 6.28782 	-0.379264 	-2.85882e-22 6.27625 	-0.381029 	-3.7598e-21 6.26688 	-0.383432 	1.05946e-23 6.2568 	-0.385536 	8.70066e-23 6.24663 	-0.387638 	1.63475e-22 6.23638 	-0.38974 	2.39999e-22 6.22531 	-0.391702 	-5.10305e-22 6.21873 	-0.393201 	4.71704e-21 6.21185 	-0.394581 	3.61435e-21 6.20494 	-0.395961 	2.50638e-21 6.19799 	-0.39734 	1.3931e-21 6.19134 	-0.398652 	3.28704e-22 6.18768 	-0.399398 	-2.4764e-22 6.18402 	-0.400143 	-8.25455e-22 6.18035 	-0.400888 	-1.40474e-21 6.17667 	-0.401634 	-1.9855e-21 6.1731 	-0.402317 	-5.05553e-23 6.16267 	-0.404511 	-2.0432e-21 6.15203 	-0.406629 	-5.07818e-21 6.14131 	-0.408747 	-8.11023e-21 6.1305 	-0.410864 	-1.11393e-20 6.12009 	-0.412741 	-1.16569e-20 6.10954 	-0.415149 	-1.08524e-20 6.09842 	-0.417267 	-1.00663e-20 6.08722 	-0.419383 	-9.27443e-21 6.0761 	-0.421413 	-1.02296e-20 6.06537 	-0.423194 	-1.62343e-20 6.05439 	-0.425623 	-9.88661e-21 6.04311 	-0.427929 	-6.48878e-21 6.03142 	-0.43004 	-7.8427e-21 6.02014 	-0.431878 	-1.81532e-20 6.0089 	-0.433655 	-3.04863e-20 5.99744 	-0.43607 	-6.59572e-20 5.98587 	-0.438484 	-1.01427e-19 5.9741 	-0.440567 	-9.97583e-20 5.96242 	-0.442334 	-5.64055e-20 5.95065 	-0.4441 	-1.30238e-20 5.93869 	-0.446497 	-4.97127e-20 5.92663 	-0.448893 	-8.63825e-20 5.91503 	-0.4509