# vtk DataFile Version 2.0
track0
ASCII
DATASET POLYDATA
POINTS 11900 float
-0.0205 0.001 1e-05
-0.0202034 0.0010001 1e-05
-0.0199069 0.00100035 1e-05
-0.0196103 0.00100072 1e-05
-0.0193137 0.0010012 1e-05
-0.0190172 0.00100179 1e-05
-0.0187132 0.00100302 1e-05
-0.0184093 0.00100345 1e-05
-0.0181054 0.00100385 1e-05
-0.0178015 0.00100422 1e-05
-0.0174976 0.00100457 1e-05
-0.0172058 0.00100548 1e-05
-0.016914 0.00100571 1e-05
-0.0166222 0.00100596 1e-05
-0.0163305 0.00100621 1e-05
-0.0160387 0.00100649 1e-05
-0.0157586 0.00100728 1e-05
-0.0154784 0.00100761 1e-05
-0.0151983 0.00100798 1e-05
-0.0149182 0.0010084 1e-05
-0.0146381 0.00100886 1e-05
-0.0143692 0.00100974 1e-05
-0.0141002 0.00101029 1e-05
-0.0138313 0.00101088 1e-05
-0.0135624 0.00101152 1e-05
-0.0132934 0.0010122 1e-05
-0.0130353 0.00101317 1e-05
-0.0127771 0.00101392 1e-05
-0.0125189 0.0010147 1e-05
-0.0122607 0.00101551 1e-05
-0.0120025 0.00101636 1e-05
-0.0117547 0.00101738 1e-05
-0.0115068 0.00101827 1e-05
-0.0112589 0.00101918 1e-05
-0.0110111 0.00102011 1e-05
-0.0107632 0.00102107 1e-05
-0.0105252 0.00102213 1e-05
-0.0102873 0.00102311 1e-05
-0.0100493 0.0010241 1e-05
-0.00981133 0.00102512 1e-05
-0.00957337 0.00102615 1e-05
-0.00934491 0.00102722 1e-05
-0.00911645 0.00102825 1e-05
-0.00888799 0.00102929 1e-05
-0.00865954 0.00103034 1e-05
-0.00843108 0.00103141 1e-05
-0.00821175 0.00103247 1e-05
-0.00799242 0.00103352 1e-05
-0.00777309 0.00103458 1e-05
-0.00755376 0.00103565 1e-05
-0.00733443 0.00103673 1e-05
-0.00719338 0.00103743 1e-05
-0.00705233 0.00103814 1e-05
-0.00691127 0.00103884 1e-05
-0.00677022 0.00103955 1e-05
-0.00663026 0.00104025 1e-05
-0.00656053 0.00104061 1e-05
-0.0064908 0.00104096 1e-05
-0.00642106 0.00104131 1e-05
-0.00635133 0.00104167 1e-05
-0.0062816 0.00104202 1e-05
-0.00607944 0.00104305 1e-05
-0.00587729 0.00104409 1e-05
-0.00567514 0.00104512 1e-05
-0.00547298 0.00104616 1e-05
-0.00527083 0.00104721 1e-05
-0.00507675 0.00104821 1e-05
-0.00488267 0.00104922 1e-05
-0.0046886 0.00105023 1e-05
-0.00449452 0.00105124 1e-05
-0.00430044 0.00105225 1e-05
-0.00411412 0.00105322 1e-05
-0.0039278 0.00105419 1e-05
-0.00374147 0.00105517 1e-05
-0.00355515 0.00105614 1e-05
-0.00336883 0.00105712 1e-05
-0.00318995 0.00105804 1e-05
-0.00301107 0.00105898 1e-05
-0.00283219 0.00105992 1e-05
-0.00265331 0.00106085 1e-05
-0.00247443 0.00106179 1e-05
-0.0023027 0.00106268 1e-05
-0.00213097 0.00106357 1e-05
-0.00195924 0.00106447 1e-05
-0.0017875 0.00106537 1e-05
-0.00161577 0.00106626 1e-05
-0.0014509 0.00106711 1e-05
-0.00128603 0.00106797 1e-05
-0.00112116 0.00106882 1e-05
-0.000956289 0.00106966 1e-05
-0.000791418 0.00107051 1e-05
-0.000633135 0.0010713 1e-05
-0.000474851 0.00107208 1e-05
-0.000316567 0.00107286 1e-05
-0.000158283 0.00107361 1e-05
1.35525e-20 0.00107435 1e-05
0.000105677 0.00107483 1e-05
0.000211355 0.0010753 1e-05
0.000317032 0.00107576 1e-05
0.00042271 0.00107621 1e-05
0.000528387 0.00107664 1e-05
0.000634886 0.00107706 1e-05
0.000741385 0.00107748 1e-05
0.000847885 0.00107789 1e-05
0.000954384 0.00107828 1e-05
0.00106088 0.00107866 1e-05
0.00116821 0.00107903 1e-05
0.00127554 0.00107939 1e-05
0.00138286 0.00107975 1e-05
0.00149019 0.00108009 1e-05
0.00159752 0.00108042 1e-05
0.00170568 0.00108073 1e-05
0.00181384 0.00108105 1e-05
0.001922 0.00108136 1e-05
0.00203016 0.00108165 1e-05
0.00213833 0.00108194 1e-05
0.00224733 0.00108221 1e-05
0.00235633 0.00108248 1e-05
0.00246533 0.00108274 1e-05
0.00257434 0.001083 1e-05
0.00268334 0.00108324 1e-05
0.00279319 0.00108347 1e-05
0.00290304 0.00108371 1e-05
0.00301289 0.00108394 1e-05
0.00312274 0.00108416 1e-05
0.00323259 0.00108437 1e-05
0.00334329 0.00108457 1e-05
0.003454 0.00108478 1e-05
0.0035647 0.00108498 1e-05
0.0036754 0.00108517 1e-05
0.00378611 0.00108536 1e-05
0.00389767 0.00108554 1e-05
0.00400924 0.00108571 1e-05
0.0041208 0.00108589 1e-05
0.00423237 0.00108606 1e-05
0.00434393 0.00108622 1e-05
0.00445636 0.00108637 1e-05
0.00456879 0.00108653 1e-05
0.00468123 0.00108667 1e-05
0.00479366 0.00108682 1e-05
0.00490609 0.00108696 1e-05
0.0050194 0.00108709 1e-05
0.0051327 0.00108722 1e-05
0.00524601 0.00108735 1e-05
0.00535932 0.00108747 1e-05
0.00547262 0.00108758 1e-05
0.00556966 0.00108768 1e-05
0.00566669 0.00108777 1e-05
0.00576373 0.00108786 1e-05
0.00586077 0.00108794 1e-05
0.00595356 0.00108802 1e-05
0.00597156 0.00108803 1e-05
0.00598956 0.00108805 1e-05
0.00600756 0.00108806 1e-05
0.00602556 0.00108808 1e-05
0.00604356 0.00108809 1e-05
0.00615863 0.00108818 1e-05
0.00627371 0.00108826 1e-05
0.00638878 0.00108834 1e-05
0.00650386 0.00108841 1e-05
0.00661893 0.00108848 1e-05
0.0067349 0.00108855 1e-05
0.00685087 0.00108861 1e-05
0.00696684 0.00108866 1e-05
0.00708281 0.00108871 1e-05
0.00719878 0.00108875 1e-05
0.00731565 0.00108879 1e-05
0.00743252 0.00108882 1e-05
0.00754939 0.00108885 1e-05
0.00766626 0.00108887 1e-05
0.00778313 0.00108889 1e-05
0.00790091 0.0010889 1e-05
0.00801869 0.00108891 1e-05
0.00813647 0.00108891 1e-05
0.00825425 0.0010889 1e-05
0.00837203 0.0010889 1e-05
0.00849073 0.00108887 1e-05
0.00860942 0.00108885 1e-05
0.00872812 0.00108882 1e-05
0.00884682 0.00108879 1e-05
0.00896551 0.00108875 1e-05
0.00908513 0.0010887 1e-05
0.00920475 0.00108864 1e-05
0.00932437 0.00108859 1e-05
0.00944398 0.00108852 1e-05
0.0095636 0.00108845 1e-05
0.00968415 0.00108836 1e-05
0.0098047 0.00108828 1e-05
0.00992525 0.00108819 1e-05
0.0100458 0.00108809 1e-05
0.0101663 0.00108799 1e-05
0.0102878 0.00108787 1e-05
0.0104093 0.00108775 1e-05
0.0105308 0.00108763 1e-05
0.0106523 0.0010875 1e-05
0.0107738 0.00108736 1e-05
0.0108962 0.00108719 1e-05
0.0110186 0.00108704 1e-05
0.0111411 0.00108688 1e-05
0.0112635 0.00108672 1e-05
0.0113859 0.00108654 1e-05
0.0115093 0.00108634 1e-05
0.0116327 0.00108615 1e-05
0.0117561 0.00108595 1e-05
0.0118795 0.00108575 1e-05
0.0120028 0.00108554 1e-05
0.0121272 0.00108529 1e-05
0.0122515 0.00108506 1e-05
0.0123759 0.00108482 1e-05
0.0125002 0.00108458 1e-05
0.0126245 0.00108433 1e-05
0.0127498 0.00108404 1e-05
0.0128752 0.00108377 1e-05
0.0130005 0.00108349 1e-05
0.0131258 0.00108321 1e-05
0.0132511 0.00108291 1e-05
0.0133774 0.00108258 1e-05
0.0135036 0.00108227 1e-05
0.0136299 0.00108195 1e-05
0.0137562 0.00108162 1e-05
0.0138825 0.00108128 1e-05
0.0140098 0.00108091 1e-05
0.014137 0.00108055 1e-05
0.0142643 0.00108018 1e-05
0.0143915 0.0010798 1e-05
0.0145188 0.00107942 1e-05
0.0146471 0.001079 1e-05
0.0147753 0.00107859 1e-05
0.0149036 0.00107818 1e-05
0.0150318 0.00107776 1e-05
0.0151601 0.00107732 1e-05
0.0152893 0.00107686 1e-05
0.0154186 0.0010764 1e-05
0.0155478 0.00107594 1e-05
0.0156771 0.00107547 1e-05
0.0158063 0.00107499 1e-05
0.0159366 0.00107448 1e-05
0.0160668 0.00107397 1e-05
0.0161971 0.00107345 1e-05
0.0163274 0.00107293 1e-05
0.0164576 0.0010724 1e-05
0.0165889 0.00107184 1e-05
0.0167201 0.00107128 1e-05
0.0168514 0.00107071 1e-05
0.0169827 0.00107014 1e-05
0.0171139 0.00106955 1e-05
0.0172462 0.00106894 1e-05
0.0173785 0.00106833 1e-05
0.0175108 0.00106771 1e-05
0.0176431 0.00106708 1e-05
0.0177754 0.00106644 1e-05
0.0179087 0.00106579 1e-05
0.018042 0.00106512 1e-05
0.0181753 0.00106445 1e-05
0.0183087 0.00106376 1e-05
0.018442 0.00106307 1e-05
0.0185763 0.00106236 1e-05
0.0187107 0.00106165 1e-05
0.018845 0.00106092 1e-05
0.0189794 0.00106018 1e-05
0.0191137 0.00105943 1e-05
0.0192491 0.00105867 1e-05
0.0193845 0.0010579 1e-05
0.0195199 0.00105711 1e-05
0.0196553 0.00105632 1e-05
0.0197907 0.00105551 1e-05
0.0199272 0.00105471 1e-05
0.0200636 0.00105388 1e-05
0.0202001 0.00105303 1e-05
0.0203365 0.00105218 1e-05
0.020473 0.00105132 1e-05
0.0206105 0.00105046 1e-05
0.020748 0.00104958 1e-05
0.0208855 0.00104868 1e-05
0.021023 0.00104777 1e-05
0.0211606 0.00104686 1e-05
0.0212991 0.00104595 1e-05
0.0214377 0.00104501 1e-05
0.0215763 0.00104405 1e-05
0.0217149 0.00104308 1e-05
0.0218535 0.00104211 1e-05
0.0219931 0.00104115 1e-05
0.0221328 0.00104016 1e-05
0.0222724 0.00103914 1e-05
0.0224121 0.00103811 1e-05
0.0225517 0.00103709 1e-05
0.0226925 0.00103607 1e-05
0.0228332 0.00103503 1e-05
0.022974 0.00103395 1e-05
0.0231147 0.00103286 1e-05
0.0232555 0.00103179 1e-05
0.0233973 0.00103072 1e-05
0.0235391 0.00102962 1e-05
0.023681 0.00102849 1e-05
0.0238228 0.00102734 1e-05
0.0239647 0.00102622 1e-05
0.0241076 0.00102509 1e-05
0.0242505 0.00102393 1e-05
0.0243935 0.00102275 1e-05
0.0245364 0.00102155 1e-05
0.0246794 0.00102036 1e-05
0.0248234 0.00101919 1e-05
0.0249675 0.00101797 1e-05
0.0251115 0.00101673 1e-05
0.0252556 0.00101548 1e-05
0.0253996 0.00101424 1e-05
0.0255448 0.001013 1e-05
0.02569 0.00101174 1e-05
0.0258351 0.00101044 1e-05
0.0259803 0.00100913 1e-05
0.0261255 0.00100783 1e-05
0.0262718 0.00100655 1e-05
0.0264181 0.00100523 1e-05
0.0265644 0.00100387 1e-05
0.0267107 0.0010025 1e-05
0.026857 0.00100115 1e-05
0.0270044 0.000999812 1e-05
0.0271519 0.000998434 1e-05
0.0272993 0.000997022 1e-05
0.0274468 0.000995601 1e-05
0.0275942 0.000994196 1e-05
0.0277428 0.000992798 1e-05
0.0278914 0.000991364 1e-05
0.0280399 0.000989895 1e-05
0.0281885 0.00098842 1e-05
0.0283371 0.000986959 1e-05
0.0284869 0.000985504 1e-05
0.0286366 0.000984014 1e-05
0.0287863 0.000982492 1e-05
0.0289361 0.000980963 1e-05
0.0290858 0.000979446 1e-05
0.0292367 0.000977933 1e-05
0.0293876 0.000976385 1e-05
0.0295385 0.00097481 1e-05
0.0296894 0.000973228 1e-05
0.0298403 0.000971653 1e-05
0.0299924 0.000970082 1e-05
0.0301445 0.000968476 1e-05
0.0302966 0.000966846 1e-05
0.0304486 0.000965208 1e-05
0.0306007 0.000963575 1e-05
0.030754 0.000961945 1e-05
0.0309072 0.000960279 1e-05
0.0310605 0.000958594 1e-05
0.0312138 0.0009569 1e-05
0.031367 0.000955208 1e-05
0.0315215 0.000953516 1e-05
0.0316759 0.00095179 1e-05
0.0318304 0.000950048 1e-05
0.0319848 0.000948297 1e-05
0.0321393 0.000946543 1e-05
0.0322949 0.00094479 1e-05
0.0324506 0.000943002 1e-05
0.0326062 0.000941201 1e-05
0.0327619 0.000939391 1e-05
0.0329175 0.000937575 1e-05
0.0330744 0.000935758 1e-05
0.0332313 0.000933906 1e-05
0.0333881 0.000932045 1e-05
[...]
POINT_DATA 11900
 FIELD attributes 2
p 1 11900 float
-5.24064 -5.23299 -5.22497 -5.21691 -5.20882 -5.20932 -5.18224 -5.19833 -5.2144 -5.23046 -5.29161 -5.29773 -5.33654 -5.37536 -5.41417 -5.47575 -5.47498 -5.50197 -5.52898 -5.55601 -5.60251 -5.60626 -5.62958 -5.65292 -5.67627 -5.71436 -5.72351 -5.74518 -5.76687 -5.78857 -5.81971 -5.83094 -5.85009 -5.86925 -5.88841 -5.91334 -5.9255 -5.9425 -5.95952 -5.97654 -5.99687 -6.00972 -6.02532 -6.04091 -6.05652 -6.07375 -6.08705 -6.10167 -6.1163 -6.13093 -6.14607 -6.15498 -6.16429 -6.1736 -6.18292 -6.19216 -6.19677 -6.20137 -6.20597 -6.21058 -6.21502 -6.2285 -6.24187 -6.25523 -6.2686 -6.28146 -6.29483 -6.30783 -6.32082 -6.33381 -6.34609 -6.35941 -6.3722 -6.38498 -6.39776 -6.40972 -6.42314 -6.43594 -6.44874 -6.46154 -6.4735 -6.48749 -6.50091 -6.51433 -6.52775 -6.54038 -6.55642 -6.57232 -6.58821 -6.6041 -6.61933 -6.63723 -6.65452 -6.67182 -6.68912 -6.70481 -6.71871 -6.73028 -6.74186 -6.75343 -6.76273 -6.77259 -6.7793 -6.78601 -6.79273 -6.79703 -6.80597 -6.81166 -6.81736 -6.82305 -6.82599 -6.83489 -6.84025 -6.84561 -6.85097 -6.85312 -6.86063 -6.86469 -6.86875 -6.87281 -6.8738 -6.87967 -6.88267 -6.88567 -6.88867 -6.88917 -6.89374 -6.89615 -6.89856 -6.90097 -6.90156 -6.90502 -6.90699 -6.90896 -6.91093 -6.91172 -6.91422 -6.9158 -6.91738 -6.91897 -6.91993 -6.92168 -6.92297 -6.92426 -6.92555 -6.92661 -6.9277 -6.92862 -6.92955 -6.93047 -6.93136 -6.93153 -6.9317 -6.93187 -6.93204 -6.93223 -6.93319 -6.93415 -6.93512 -6.93608 -6.93708 -6.93799 -6.93889 -6.9398 -6.94071 -6.94163 -6.94256 -6.94347 -6.94438 -6.94529 -6.94623 -6.94716 -6.94811 -6.94907 -6.95003 -6.95109 -6.95196 -6.95298 -6.954 -6.95501 -6.9563 -6.95703 -6.95812 -6.95921 -6.9603 -6.96193 -6.96242 -6.96359 -6.96476 -6.96593 -6.96801 -6.96819 -6.96944 -6.9707 -6.97195 -6.97458 -6.97438 -6.97572 -6.97707 -6.97842 -6.98166 -6.98103 -6.98247 -6.98391 -6.98535 -6.98925 -6.98819 -6.98972 -6.99125 -6.99279 -6.99735 -6.99586 -6.99749 -6.99912 -7.00075 -7.00597 -7.00409 -7.00581 -7.00754 -7.00926 -7.01509 -7.01288 -7.0147 -7.01652 -7.01834 -7.0247 -7.02225 -7.02417 -7.02609 -7.028 -7.03481 -7.03233 -7.03422 -7.03624 -7.03862 -7.04541 -7.04324 -7.04486 -7.04697 -7.04983 -7.05648 -7.05469 -7.05608 -7.05829 -7.06156 -7.068 -7.06665 -7.06786 -7.07016 -7.0738 -7.07997 -7.07909 -7.08018 -7.08258 -7.0865 -7.09238 -7.09197 -7.09303 -7.09552 -7.09965 -7.10522 -7.10531 -7.1064 -7.10899 -7.11327 -7.11851 -7.11909 -7.12029 -7.12297 -7.12731 -7.13225 -7.13328 -7.13465 -7.13743 -7.14177 -7.1464 -7.14787 -7.14944 -7.15231 -7.15659 -7.16095 -7.16281 -7.16468 -7.16766 -7.17177 -7.17589 -7.17811 -7.18033 -7.18339 -7.1873 -7.1912 -7.19374 -7.19628 -7.19941 -7.20314 -7.20687 -7.20969 -7.21251 -7.21571 -7.2193 -7.2229 -7.22595 -7.229 -7.23228 -7.23577 -7.23926 -7.24251 -7.24577 -7.2491 -7.25253 -7.25595 -7.25937 -7.26279 -7.26618 -7.26957 -7.27296 -7.2765 -7.28005 -7.2835 -7.28688 -7.29026 -7.2939 -7.29755 -7.30105 -7.30445 -7.30783 -7.31156 -7.31526 -7.31881 -7.32225 -7.32567 -7.32944 -7.33317 -7.33677 -7.34027 -7.34373 -7.34754 -7.35128 -7.35492 -7.35848 -7.36198 -7.36581 -7.36956 -7.37323 -7.37686 -7.38041 -7.38424 -7.38799 -7.3917 -7.39538 -7.39898 -7.40282 -7.40657 -7.4103 -7.41403 -7.41769 -7.42151 -7.42527 -7.42902 -7.43278 -7.43649 -7.44028 -7.44405 -7.44782 -7.45159 -7.45533 -7.4591 -7.46287 -7.46664 -7.47041 -7.47417 -7.47792 -7.48168 -7.48544 -7.4892 -7.49296 -7.49669 -7.50043 -7.50417 -7.50791 -7.51165 -7.51535 -7.51905 -7.52276 -7.52647 -7.53018 -7.5325 -7.53482 -7.53715 -7.53947 -7.54173 -7.54309 -7.54445 -7.54581 -7.54717 -7.54853 -7.55215 -7.55577 -7.5594 -7.56302 -7.56665 -7.57021 -7.57376 -7.57731 -7.58086 -7.58442 -7.58791 -7.59137 -7.59484 -7.59831 -7.60177 -7.60518 -7.60855 -7.61192 -7.61529 -7.61864 -7.62197 -7.62523 -7.62849 -7.63175 -7.63497 -7.63821 -7.64135 -7.64448 -7.64761 -7.65069 -7.6538 -7.65682 -7.65981 -7.66278 -7.6657 -7.66867 -7.67156 -7.67439 -7.67717 -7.67992 -7.68272 -7.68548 -7.68813 -7.6907 -7.69324 -7.69586 -7.69847 -7.70092 -7.70325 -7.70557 -7.70799 -7.71041 -7.71264 -7.71473 -7.71682 -7.71901 -7.7212 -7.72321 -7.72504 -7.72687 -7.72882 -7.73078 -7.73254 -7.7341 -7.73565 -7.73734 -7.73903 -7.74054 -7.74179 -7.74305 -7.74445 -7.74584 -7.74704 -7.748 -7.74892 -7.75001 -7.75104 -7.75191 -7.75259 -7.75316 -7.7539 -7.75452 -7.75503 -7.75542 -7.75561 -7.75598 -7.75616 -7.75628 -7.75637 -7.75615 -7.75612 -7.75582 -7.75552 -7.75522 -7.75462 -7.75409 -7.75333 -7.75258 -7.75183 -7.75088 -7.74978 -7.74854 -7.7473 -7.74606 -7.74473 -7.74354 -7.74228 -7.74102 -7.73976 -7.73856 -7.73806 -7.73755 -7.73704 -7.73654 -7.73603 -7.73376 -7.73148 -7.7292 -7.72692 -7.72462 -7.72182 -7.71893 -7.71604 -7.71316 -7.7102 -7.70683 -7.70329 -7.69975 -7.69621 -7.69253 -7.68854 -7.68432 -7.68008 -7.67578 -7.67136 -7.66663 -7.66178 -7.65677 -7.65164 -7.64643 -7.64092 -7.63538 -7.62957 -7.62351 -7.61746 -7.61111 -7.60475 -7.59808 -7.59113 -7.58418 -7.57692 -7.56967 -7.56211 -7.5542 -7.54629 -7.53808 -7.52984 -7.52129 -7.51243 -7.50351 -7.49429 -7.48489 -7.4753 -7.46556 -7.45556 -7.44527 -7.43463 -7.42393 -7.41324 -7.40217 -7.39065 -7.37879 -7.36694 -7.35509 -7.34307 -7.33266 -7.3221 -7.31153 -7.30098 -7.29108 -7.28846 -7.28584 -7.28323 -7.28061 -7.27797 -7.26371 -7.24944 -7.23517 -7.22091 -7.20648 -7.19111 -7.17555 -7.16 -7.14445 -7.12855 -7.11202 -7.09517 -7.07829 -7.06128 -7.04399 -7.02611 -7.00809 -6.98985 -6.97128 -6.95259 -6.93333 -6.91408 -6.8944 -6.87429 -6.85419 -6.83351 -6.81285 -6.79173 -6.77017 -6.74862 -6.7265 -6.70432 -6.68168 -6.65877 -6.63574 -6.61216 -6.58823 -6.5641 -6.53995 -6.51544 -6.49029 -6.46464 -6.43901 -6.41338 -6.38758 -6.37003 -6.35227 -6.33451 -6.31676 -6.29987 -6.29034 -6.28082 -6.27129 -6.26176 -6.25209 -6.22364 -6.19507 -6.16652 -6.13797 -6.10884 -6.07922 -6.04912 -6.01903 -5.98873 -5.95781 -5.92669 -5.89538 -5.86376 -5.83144 -5.79897 -5.7663 -5.73365 -5.70033 -5.66632 -5.6323 -5.59808 -5.56388 -5.52884 -5.49336 -5.4578 -5.42205 -5.3858 -5.3492 -5.31258 -5.2755 -5.23804 -5.1999 -5.16178 -5.12366 -5.08544 -5.07581 -5.06604 -5.05627 -5.04651 -5.03691 -5.00711 -4.97732 -4.94754 -4.91777 -4.88755 -4.84687 -4.8059 -4.76493 -4.72387 -4.68199 -4.64001 -4.59782 -4.55541 -4.51229 -4.46896 -4.42553 -4.38211 -4.33805 -4.29333 -4.2486 -4.20375 -4.15876 -4.11308 -4.06717 -4.02108 -3.97484 -3.92789 -3.88085 -3.83382 -3.78657 -3.76147 -3.73607 -3.71066 -3.68526 -3.66074 -3.63768 -3.61463 -3.59158 -3.56853 -3.54518 -3.49587 -3.4464 -3.39694 -3.34742 -3.29712 -3.24676 -3.19627 -3.14562 -3.0943 -3.04284 -2.9913 -2.93977 -2.88771 -2.83518 -2.78262 -2.72997 -2.67703 -2.62371 -2.57037 -2.51679 -2.46586 -2.41445 -2.36305 -2.31166 -2.26322 -2.25972 -2.25621 -2.2527 -2.2492 -2.24565 -2.19049 -2.13533 -2.08018 -2.02504 -1.96931 -1.91346 -1.85749 -1.80149 -1.74509 -1.68849 -1.63181 -1.57515 -1.51816 -1.46088 -1.40357 -1.34616 -1.28857 -1.23074 -1.17292 -1.11499 -1.07157 -1.0279 -0.984243 -0.940591 -0.898768 -0.883652 -0.868536 -0.853422 -0.838308 -0.823091 -0.764188 -0.705284 -0.646394 -0.587469 -0.528187 -0.46885 -0.409529 -0.350216 -0.290638 -0.231016 -0.171315 -0.111628 -0.0517451 0.00808977 0.0679566 0.127926 0.18801 0.248092 0.308161 0.36826 0.3745 0.380747 0.386994 0.393241 0.399454 0.453496 0.507528 0.561551 0.615563 0.669708 0.730174 0.790541 0.850838 0.911153 0.971525 1.03197 1.0924 1.15278 1.21297 1.2732 1.33353 1.39375 1.45394 1.51411 1.57429 1.58245 1.5906 1.59874 1.60688 1.61497 1.66693 1.71888 1.77083 1.82276 1.87461 1.93466 1.99455 2.05431 2.11387 2.17346 2.23311 2.29275 2.35213 2.41126 2.47037 2.52542 2.58019 2.63492 2.68964 2.7425 2.747 2.75149 2.75599 2.76049 2.76496 2.82352 2.88203 2.94053 2.99897 3.05709 3.11534 3.17358 3.23133 3.28871 3.34614 3.40368 3.46107 3.5181 3.57511 3.63176 3.66221 3.69241 3.72257 3.75273 3.78244 3.80878 3.83512 3.86147 3.88781 3.914 3.97006 4.02583 4.0816 4.13718 4.1926 4.24785 4.30309 4.35795 4.41241 4.4669 4.52122 4.57527 4.62914 4.683 4.73667 4.75275 4.7687 4.78463 4.80056 4.81642 4.85363 4.89083 4.92803 4.9652 5.00205 5.05468 5.10702 5.15923 5.21097 5.26265 5.31424 5.36583 5.41687 5.46758 5.51818 5.56104 5.60344 5.64579 5.68813 5.73026 5.73794 5.74563 5.75332 5.761 5.7686 5.81795 5.86718 5.9164 5.96544 6.01405 6.06261 6.11116 6.15917 6.20664 6.25412 6.30156 6.34864 6.39544 6.44223 6.48878 6.50093 6.51293 6.52491 6.53689 6.54889 6.58287 6.61685 6.65084 6.68475 6.71826 6.76364 6.80882 6.85376 6.89807 6.94237 6.98661 7.03077 7.07438 7.11785 7.16101 7.18783 7.21431 7.24073 7.26715 7.29386 7.31002 7.32617 7.34233 7.35845 7.37437 7.41646 7.45823 7.5 7.54142 7.58256 7.62363 7.6647 7.70529 7.74535 7.78538 7.8251 7.8643 7.90342 7.94254 7.98281 7.98283 7.98285 7.98287 7.9829 7.98292 8.02159 8.06027 8.09895 8.13755 8.17562 8.21361 8.2516 8.28909 8.32613 8.36315 8.40009 8.43682 8.47321 8.50959 8.54561 8.56196 8.5781 8.5942 8.61031 8.62672 8.6461 8.66548 8.68487 8.70422 8.72331 8.75836 8.79308 8.82779 8.86214 8.89629 8.93036 8.96442 8.99809 9.03131 9.0645 9.0976 9.13028 9.16289 9.1955 9.22803 9.2304 9.23274 9.23507 9.23741 9.23975 9.26937 9.29898 9.3286 9.3582 9.38736 9.41873 9.45 9.48106 9.51168 9.54228 9.57275 9.60321 9.63327 9.66315 9.69288 9.72014 9.74704 9.77393 9.80082 9.82923 9.83126 9.83329 9.83531 9.83734 9.83934 9.868 9.89663 9.92525 9.95385 9.98209 10.0102 10.0382 10.066 10.0935 10.1209 10.1482 10.1755 10.2025 10.2293 10.2559 10.2825 10.3087 10.3348 10.361 10.3871 10.3913 10.3955 10.3997 10.4039 10.4081 10.4296 10.451 10.4725 10.4939 10.5152 10.5406 10.5654 10.59 10.614 10.6378 10.6613 10.6849 10.7097 10.7359 10.7619 10.7878 10.8117 10.8298 10.8454 10.8574 10.8693 10.897 10.9247 10.9523 10.9841 10.9917 10.9962 10.9998 11.0034 11.0071 11.0293 11.0515 11.0736 11.0928 11.0998 11.1082 11.1171 11.1294 11.1469 11.1644 11.1817 11.1981 11.2131 11.228 11.2417 11.2469 11.2517 11.2564 11.2611 11.2661 11.274 11.2818 11.2896 11.2973 11.3046 11.3159 11.3266 11.337 11.3462 11.3553 11.3636 11.3719 11.3787 11.3848 11.3905 11.3941 11.3966 11.3988 11.4011 11.4036 11.4045 11.4053 11.4061 11.4069 11.4074 11.4077 11.4074 11.407 11.406 11.4036 11.3998 11.3959 11.3899 11.3819 11.3739 11.3642 11.3535 11.341 11.3283 11.3137 11.3026 11.2895 11.2763 11.2631 11.2475 11.2419 11.2362 11.2305 11.2249 11.2184 11.1933 11.1669 11.1404 11.1132 11.0833 11.0504 11.0171 10.9808 10.9408 10.9007 10.8574 10.8141 10.7666 10.7155 10.664 10.6089 10.5501 10.4896 10.4291 10.3654 10.3153 10.262 10.2086 10.1553 10.0889 10.0709 10.0528 10.0347 10.0166 9.99759 9.91055 9.82214 9.73362 9.64499 9.55061 9.44982 9.34446 9.2383 9.1291 9.01644 8.89794 8.77871 8.65055 8.51246 8.37422 8.22932 8.08434 7.93601 7.78441 7.63269 7.47394 7.31212 7.12659 6.92495 6.71756 6.50112 6.29922 6.10796 5.9207 5.7501 5.57152 5.27631 4.98161 4.68741 4.32842 4.01853 3.8382 3.65958 3.4826 3.33809 3.26148 3.08254 2.90327 2.72368 2.58133 2.13754 1.6984 1.26384 0.833758 0