# vtk DataFile Version 2.0
track0
ASCII
DATASET POLYDATA
POINTS 11960 float
-0.0205 0.001 1e-05
-0.0202034 0.0010001 1e-05
-0.0199069 0.00100035 1e-05
-0.0196103 0.00100072 1e-05
-0.0193137 0.0010012 1e-05
-0.0190172 0.00100178 1e-05
-0.0187132 0.00100302 1e-05
-0.0184093 0.00100345 1e-05
-0.0181054 0.00100385 1e-05
-0.0178015 0.00100422 1e-05
-0.0174976 0.00100457 1e-05
-0.0172058 0.00100548 1e-05
-0.016914 0.00100571 1e-05
-0.0166222 0.00100595 1e-05
-0.0163305 0.00100621 1e-05
-0.0160387 0.00100648 1e-05
-0.0157586 0.00100727 1e-05
-0.0154784 0.0010076 1e-05
-0.0151983 0.00100797 1e-05
-0.0149182 0.00100838 1e-05
-0.0146381 0.00100885 1e-05
-0.0143692 0.00100972 1e-05
-0.0141002 0.00101027 1e-05
-0.0138313 0.00101087 1e-05
-0.0135624 0.0010115 1e-05
-0.0132934 0.00101218 1e-05
-0.0130353 0.00101315 1e-05
-0.0127771 0.00101389 1e-05
-0.0125189 0.00101467 1e-05
-0.0122607 0.00101548 1e-05
-0.0120025 0.00101633 1e-05
-0.0117547 0.00101735 1e-05
-0.0115068 0.00101823 1e-05
-0.0112589 0.00101914 1e-05
-0.0110111 0.00102008 1e-05
-0.0107632 0.00102103 1e-05
-0.0105252 0.00102209 1e-05
-0.0102873 0.00102306 1e-05
-0.0100493 0.00102406 1e-05
-0.00981133 0.00102507 1e-05
-0.00957337 0.00102609 1e-05
-0.00934491 0.00102716 1e-05
-0.00911645 0.00102819 1e-05
-0.00888799 0.00102922 1e-05
-0.00865954 0.00103028 1e-05
-0.00843108 0.00103134 1e-05
-0.00821175 0.0010324 1e-05
-0.00799242 0.00103345 1e-05
-0.00777309 0.00103451 1e-05
-0.00755376 0.00103557 1e-05
-0.00733443 0.00103664 1e-05
-0.00718941 0.00103737 1e-05
-0.00704439 0.00103808 1e-05
-0.00689937 0.00103881 1e-05
-0.00675434 0.00103953 1e-05
-0.00661031 0.00104025 1e-05
-0.00654457 0.00104058 1e-05
-0.00647883 0.00104092 1e-05
-0.00641308 0.00104125 1e-05
-0.00634734 0.00104158 1e-05
-0.0062816 0.00104191 1e-05
-0.00607944 0.00104294 1e-05
-0.00587729 0.00104397 1e-05
-0.00567514 0.001045 1e-05
-0.00547298 0.00104604 1e-05
-0.00527083 0.00104708 1e-05
-0.00507675 0.00104807 1e-05
-0.00488267 0.00104907 1e-05
-0.0046886 0.00105008 1e-05
-0.00449452 0.00105108 1e-05
-0.00430044 0.00105209 1e-05
-0.00411412 0.00105305 1e-05
-0.0039278 0.00105401 1e-05
-0.00374147 0.00105498 1e-05
-0.00355515 0.00105595 1e-05
-0.00336883 0.00105691 1e-05
-0.00318995 0.00105783 1e-05
-0.00301107 0.00105876 1e-05
-0.00283219 0.00105969 1e-05
-0.00265331 0.00106061 1e-05
-0.00247443 0.00106154 1e-05
-0.0023027 0.00106242 1e-05
-0.00213097 0.0010633 1e-05
-0.00195924 0.00106418 1e-05
-0.0017875 0.00106507 1e-05
-0.00161577 0.00106595 1e-05
-0.0014509 0.00106679 1e-05
-0.00128603 0.00106762 1e-05
-0.00112116 0.00106846 1e-05
-0.000956289 0.00106928 1e-05
-0.000791418 0.00107011 1e-05
-0.000633135 0.00107088 1e-05
-0.000474851 0.00107164 1e-05
-0.000316567 0.00107239 1e-05
-0.000158283 0.00107312 1e-05
0 0.00107383 1e-05
0.000105677 0.00107429 1e-05
0.000211355 0.00107474 1e-05
0.000317032 0.00107518 1e-05
0.00042271 0.0010756 1e-05
0.000528387 0.00107601 1e-05
0.000634886 0.0010764 1e-05
0.000741385 0.00107679 1e-05
0.000847885 0.00107717 1e-05
0.000954384 0.00107753 1e-05
0.00106088 0.00107788 1e-05
0.00116821 0.00107821 1e-05
0.00127554 0.00107854 1e-05
0.00138286 0.00107886 1e-05
0.00149019 0.00107916 1e-05
0.00159752 0.00107946 1e-05
0.00170568 0.00107973 1e-05
0.00181384 0.00108001 1e-05
0.001922 0.00108027 1e-05
0.00203016 0.00108052 1e-05
0.00213833 0.00108077 1e-05
0.00224733 0.00108099 1e-05
0.00235633 0.00108122 1e-05
0.00246533 0.00108144 1e-05
0.00257434 0.00108165 1e-05
0.00268334 0.00108185 1e-05
0.00279319 0.00108204 1e-05
0.00290304 0.00108223 1e-05
0.00301289 0.00108241 1e-05
0.00312274 0.00108259 1e-05
0.00323259 0.00108276 1e-05
0.00334329 0.00108291 1e-05
0.003454 0.00108307 1e-05
0.0035647 0.00108323 1e-05
0.0036754 0.00108338 1e-05
0.00378611 0.00108352 1e-05
0.00389767 0.00108365 1e-05
0.00400924 0.00108379 1e-05
0.0041208 0.00108391 1e-05
0.00423237 0.00108404 1e-05
0.00434393 0.00108416 1e-05
0.00445636 0.00108427 1e-05
0.00456879 0.00108438 1e-05
0.00468123 0.00108449 1e-05
0.00479366 0.00108459 1e-05
0.00490609 0.00108469 1e-05
0.0050194 0.00108478 1e-05
0.0051327 0.00108486 1e-05
0.00524601 0.00108495 1e-05
0.00535932 0.00108503 1e-05
0.00547262 0.0010851 1e-05
0.00549821 0.00108512 1e-05
0.0055238 0.00108514 1e-05
0.00554939 0.00108515 1e-05
0.00557498 0.00108517 1e-05
0.00560029 0.00108518 1e-05
0.00568895 0.00108523 1e-05
0.0057776 0.00108528 1e-05
0.00586625 0.00108533 1e-05
0.0059549 0.00108537 1e-05
0.00604356 0.00108541 1e-05
0.00615863 0.00108546 1e-05
0.00627371 0.0010855 1e-05
0.00638878 0.00108554 1e-05
0.00650386 0.00108557 1e-05
0.00661893 0.0010856 1e-05
0.0067349 0.00108562 1e-05
0.00685087 0.00108564 1e-05
0.00696684 0.00108566 1e-05
0.00708281 0.00108567 1e-05
0.00719878 0.00108567 1e-05
0.00731565 0.00108567 1e-05
0.00743252 0.00108566 1e-05
0.00754939 0.00108565 1e-05
0.00766626 0.00108563 1e-05
0.00778313 0.00108561 1e-05
0.00790091 0.00108558 1e-05
0.00801869 0.00108554 1e-05
0.00813647 0.0010855 1e-05
0.00825425 0.00108546 1e-05
0.00837203 0.0010854 1e-05
0.00849073 0.00108534 1e-05
0.00860942 0.00108527 1e-05
0.00872812 0.0010852 1e-05
0.00884682 0.00108513 1e-05
0.00896551 0.00108504 1e-05
0.00908513 0.00108494 1e-05
0.00920475 0.00108484 1e-05
0.00932437 0.00108474 1e-05
0.00944398 0.00108463 1e-05
0.0095636 0.00108451 1e-05
0.00968415 0.00108437 1e-05
0.0098047 0.00108424 1e-05
0.00992525 0.0010841 1e-05
0.0100458 0.00108396 1e-05
0.0101663 0.0010838 1e-05
0.0102878 0.00108362 1e-05
0.0104093 0.00108345 1e-05
0.0105308 0.00108328 1e-05
0.0106523 0.00108309 1e-05
0.0107738 0.0010829 1e-05
0.0108962 0.00108268 1e-05
0.0110186 0.00108246 1e-05
0.0111411 0.00108225 1e-05
0.0112635 0.00108202 1e-05
0.0113859 0.00108179 1e-05
0.0115093 0.00108152 1e-05
0.0116327 0.00108126 1e-05
0.0117561 0.001081 1e-05
0.0118795 0.00108073 1e-05
0.0120028 0.00108045 1e-05
0.0121272 0.00108014 1e-05
0.0122515 0.00107984 1e-05
0.0123759 0.00107953 1e-05
0.0125002 0.00107921 1e-05
0.0126245 0.00107888 1e-05
0.0127498 0.00107852 1e-05
0.0128752 0.00107817 1e-05
0.0130005 0.00107781 1e-05
0.0131258 0.00107744 1e-05
0.0132511 0.00107707 1e-05
0.0133774 0.00107665 1e-05
0.0135036 0.00107625 1e-05
0.0136299 0.00107584 1e-05
0.0137562 0.00107542 1e-05
0.0138825 0.00107499 1e-05
0.0140098 0.00107452 1e-05
0.014137 0.00107406 1e-05
0.0142643 0.00107359 1e-05
0.0143915 0.00107312 1e-05
0.0145188 0.00107263 1e-05
0.0146471 0.00107211 1e-05
0.0147753 0.00107159 1e-05
0.0149036 0.00107107 1e-05
0.0150318 0.00107053 1e-05
0.0151601 0.00106999 1e-05
0.0152893 0.0010694 1e-05
0.0154186 0.00106883 1e-05
0.0155478 0.00106824 1e-05
0.0156771 0.00106764 1e-05
0.0158063 0.00106703 1e-05
0.0159366 0.00106639 1e-05
0.0160668 0.00106575 1e-05
0.0161971 0.0010651 1e-05
0.0163274 0.00106444 1e-05
0.0164576 0.00106377 1e-05
0.0165889 0.00106307 1e-05
0.0167201 0.00106236 1e-05
0.0168514 0.00106164 1e-05
0.0169827 0.00106092 1e-05
0.0171139 0.00106018 1e-05
0.0172462 0.00105941 1e-05
0.0173785 0.00105864 1e-05
0.0175108 0.00105785 1e-05
0.0176431 0.00105706 1e-05
0.0177754 0.00105625 1e-05
0.0179087 0.00105542 1e-05
0.018042 0.00105457 1e-05
0.0181753 0.00105372 1e-05
0.0183087 0.00105285 1e-05
0.018442 0.00105197 1e-05
0.0185763 0.00105107 1e-05
0.0187107 0.00105016 1e-05
0.018845 0.00104923 1e-05
0.0189794 0.00104829 1e-05
0.0191137 0.00104734 1e-05
0.0192491 0.00104637 1e-05
0.0193845 0.00104539 1e-05
0.0195199 0.00104439 1e-05
0.0196553 0.00104337 1e-05
0.0197907 0.00104234 1e-05
0.0199272 0.00104131 1e-05
0.0200636 0.00104025 1e-05
0.0202001 0.00103917 1e-05
0.0203365 0.00103807 1e-05
0.020473 0.00103697 1e-05
0.0206105 0.00103587 1e-05
0.020748 0.00103473 1e-05
0.0208855 0.00103357 1e-05
0.021023 0.0010324 1e-05
0.0211606 0.00103123 1e-05
0.0212991 0.00103004 1e-05
0.0214377 0.00102883 1e-05
0.0215763 0.00102759 1e-05
0.0217149 0.00102634 1e-05
0.0218535 0.00102509 1e-05
0.0219931 0.00102383 1e-05
0.0221328 0.00102255 1e-05
0.0222724 0.00102123 1e-05
0.0224121 0.00101989 1e-05
0.0225517 0.00101856 1e-05
0.0226925 0.00101723 1e-05
0.0228332 0.00101586 1e-05
0.022974 0.00101446 1e-05
0.0231147 0.00101305 1e-05
0.0232555 0.00101164 1e-05
0.0233973 0.00101023 1e-05
0.0235391 0.00100878 1e-05
0.023681 0.0010073 1e-05
0.0238228 0.0010058 1e-05
0.0239647 0.00100431 1e-05
0.0241076 0.00100282 1e-05
0.0242505 0.00100129 1e-05
0.0243935 0.000999724 1e-05
0.0245364 0.000998143 1e-05
0.0246794 0.000996572 1e-05
0.0248234 0.000994998 1e-05
0.0249675 0.000993385 1e-05
0.0251115 0.000991733 1e-05
0.0252556 0.000990068 1e-05
0.0253996 0.000988413 1e-05
0.0255448 0.000986755 1e-05
0.02569 0.000985057 1e-05
0.0258351 0.000983319 1e-05
0.0259803 0.000981568 1e-05
0.0261255 0.000979827 1e-05
0.0262718 0.000978082 1e-05
0.0264181 0.000976297 1e-05
0.0265644 0.000974474 1e-05
0.0267107 0.000972638 1e-05
0.026857 0.00097081 1e-05
0.0270044 0.000968977 1e-05
0.0271519 0.000967103 1e-05
0.0272993 0.000965195 1e-05
0.0274467 0.000963273 1e-05
0.0275942 0.000961355 1e-05
0.0277428 0.000959431 1e-05
0.0278914 0.000957466 1e-05
0.0280399 0.000955471 1e-05
0.0281885 0.000953462 1e-05
0.0283371 0.000951451 1e-05
0.0284869 0.000949435 1e-05
0.0286366 0.000947377 1e-05
0.0287863 0.000945291 1e-05
0.0289361 0.000943192 1e-05
0.0290858 0.000941088 1e-05
0.0292367 0.000938976 1e-05
0.0293876 0.000936821 1e-05
0.0295385 0.000934644 1e-05
0.0296894 0.000932452 1e-05
0.0298403 0.000930251 1e-05
0.0299924 0.00092804 1e-05
0.0301445 0.000925786 1e-05
0.0302966 0.000923514 1e-05
0.0304486 0.000921227 1e-05
0.0306007 0.000918925 1e-05
0.030754 0.000916612 1e-05
0.0309072 0.000914258 1e-05
0.0310605 0.000911888 1e-05
0.0312138 0.000909501 1e-05
0.031367 0.0009071 1e-05
0.0315215 0.000904681 1e-05
0.0316759 0.000902226 1e-05
0.0318304 0.000899754 1e-05
0.0319848 0.000897265 1e-05
0.0321393 0.00089476 1e-05
0.0322949 0.000892232 1e-05
0.0324506 0.000889672 1e-05
0.0326062 0.000887094 1e-05
0.0327619 0.0008845 1e-05
0.0329175 0.000881887 1e-05
0.0330744 0.000879247 1e-05
0.0332313 0.000876577 1e-05
[...]
POINT_DATA 11960
 FIELD attributes 1
U 3 11960 float
9.9991 	0.00338253 	0 9.99879 	0.00856911 	0 9.99916 	0.0123272 	0 9.99954 	0.0160755 	0 9.99992 	0.019814 	0 10.003 	0.0406702 	0 10.0034 	0.0140438 	0 10.0062 	0.013176 	0 10.0091 	0.0123045 	0 10.0119 	0.0114293 	0 10.0152 	0.0311884 	0 10.0177 	0.00789394 	0 10.0202 	0.00836584 	0 10.0228 	0.00884091 	0 10.0254 	0.00931917 	0 10.0256 	0.0285084 	0 10.0288 	0.0115819 	0 10.0302 	0.0132272 	0 10.0316 	0.0148832 	0 10.033 	0.0165499 	0 10.0305 	0.0327712 	0 10.0349 	0.0205089 	0 10.0358 	0.0221092 	0 10.0366 	0.0237186 	0 10.0375 	0.0253371 	0 10.0332 	0.0375612 	0 10.0385 	0.0289843 	0 10.0389 	0.0302646 	0 10.0394 	0.031551 	0 10.0399 	0.0328436 	0 10.0346 	0.0414386 	0 10.0401 	0.0358 	0 10.0402 	0.0367995 	0 10.0403 	0.0378031 	0 10.0404 	0.0388106 	0 10.0349 	0.0445142 	0 10.04 	0.0410805 	0 10.0399 	0.0418454 	0 10.0397 	0.0426128 	0 10.0396 	0.0433826 	0 10.0346 	0.0469058 	0 10.0388 	0.0450401 	0 10.0385 	0.0456071 	0 10.0381 	0.0461754 	0 10.0378 	0.0467453 	0 10.034 	0.0486901 	0 10.0368 	0.0478911 	0 10.0364 	0.0482955 	0 10.0359 	0.0487009 	0 10.0355 	0.049107 	0 10.0335 	0.0499541 	0 10.0346 	0.0497599 	0 10.0342 	0.0499484 	0 10.0338 	0.0501371 	0 10.0335 	0.0503261 	0 10.0331 	0.0505139 	0 10.0329 	0.0505979 	0 10.0328 	0.0506819 	0 10.0326 	0.050766 	0 10.0324 	0.0508501 	0 10.0321 	0.0508416 	0 10.0317 	0.051078 	0 10.0311 	0.0512423 	0 10.0305 	0.0514069 	0 10.0299 	0.0515716 	0 10.0288 	0.051414 	0 10.0288 	0.0517492 	0 10.0282 	0.0518309 	0 10.0275 	0.0519128 	0 10.0269 	0.0519947 	0 10.0252 	0.0516015 	0 10.0259 	0.0519959 	0 10.0253 	0.0520146 	0 10.0246 	0.0520334 	0 10.024 	0.0520522 	0 10.0218 	0.0515001 	0 10.0232 	0.0519303 	0 10.0226 	0.0519089 	0 10.022 	0.0518876 	0 10.0214 	0.0518662 	0 10.0186 	0.0512173 	0 10.021 	0.0516525 	0 10.0205 	0.0515941 	0 10.0201 	0.0515357 	0 10.0197 	0.0514773 	0 10.0163 	0.0507529 	0 10.0198 	0.0509689 	0 10.0196 	0.0506177 	0 10.0195 	0.0502663 	0 10.0193 	0.0499148 	0 10.0154 	0.0488447 	0 10.0201 	0.0484253 	0 10.0203 	0.0473098 	0 10.0205 	0.0461938 	0 10.0207 	0.0450774 	0 10.0163 	0.0433229 	0 10.0213 	0.0428933 	-3.71439e-21 10.0211 	0.0415176 	-9.87524e-21 10.0209 	0.0401415 	-1.60371e-20 10.0207 	0.0387649 	-2.22001e-20 10.0158 	0.0367296 	-2.87791e-20 10.0203 	0.0365982 	-4.43465e-20 10.0198 	0.0353551 	-4.41703e-20 10.0192 	0.0341113 	-4.39883e-20 10.0187 	0.032867 	-4.38005e-20 10.0136 	0.0307681 	-2.72863e-20 10.0177 	0.0308985 	-2.90858e-20 10.017 	0.0297322 	-3.2873e-20 10.0162 	0.0285652 	-3.66626e-20 10.0154 	0.0273973 	-4.04545e-20 10.0105 	0.0251868 	-4.49122e-20 10.014 	0.0255293 	-5.83029e-20 10.0131 	0.0245318 	-5.81238e-20 10.0121 	0.0235336 	-5.79408e-20 10.0111 	0.0225346 	-5.77542e-20 10.0063 	0.020412 	-4.69535e-20 10.0092 	0.0209063 	-3.41746e-20 10.008 	0.0201476 	-2.06695e-20 10.0068 	0.0193883 	-7.16498e-21 10.0055 	0.0186283 	6.33896e-21 10.0009 	0.0167906 	1.99272e-20 10.0031 	0.0172863 	1.29752e-20 10.0016 	0.0167064 	8.15659e-21 10.0001 	0.0161261 	3.33815e-21 9.99865 	0.0155452 	-1.48011e-21 9.9943 	0.014046 	-2.38895e-21 9.99573 	0.0144134 	4.79293e-21 9.99401 	0.0139354 	5.65478e-21 9.99229 	0.013457 	6.51354e-21 9.99056 	0.0129782 	7.36919e-21 9.98654 	0.0118079 	1.10651e-21 9.98712 	0.0119857 	1.86778e-20 9.98514 	0.0115619 	2.27192e-20 9.98315 	0.0111378 	2.67556e-20 9.98116 	0.0107134 	3.07868e-20 9.9775 	0.00984106 	2.30533e-20 9.97712 	0.00981703 	1.95029e-20 9.97485 	0.00941798 	1.45533e-20 9.97257 	0.00901867 	9.60402e-21 9.97029 	0.00861909 	4.65499e-21 9.96702 	0.00799653 	-6.03959e-22 9.96556 	0.00778438 	6.84011e-21 9.96296 	0.0073897 	1.41026e-20 9.96036 	0.00699478 	2.13655e-20 9.95775 	0.00659963 	2.86288e-20 9.95495 	0.00616834 	3.58365e-20 9.95452 	0.00610732 	3.43005e-20 9.95386 	0.00601707 	3.27098e-20 9.9532 	0.00592681 	3.1119e-20 9.95254 	0.00583654 	2.95283e-20 9.95188 	0.00574721 	2.79543e-20 9.94956 	0.00543196 	2.28061e-20 9.94724 	0.00511658 	1.76596e-20 9.94491 	0.00480106 	1.25149e-20 9.94258 	0.0044854 	7.37199e-21 9.93617 	0.00415162 	1.21806e-22 9.93673 	0.00376982 	-9.72055e-21 9.93335 	0.00334917 	-1.74676e-20 9.92997 	0.00292831 	-2.52178e-20 9.92659 	0.00250725 	-3.2971e-20 9.91337 	0.00194605 	-3.58392e-20 9.91902 	0.00168002 	-2.15338e-20 9.91523 	0.00123994 	-7.22641e-21 9.91144 	0.000799661 	7.081e-21 9.90764 	0.000359185 	2.13884e-20 9.88779 	-0.000426087 	3.43706e-20 9.8989 	-0.000513519 	4.77913e-20 9.89467 	-0.000976033 	5.42616e-20 9.89044 	-0.00143874 	6.07344e-20 9.8862 	-0.00190165 	6.72096e-20 9.85936 	-0.00296509 	6.18901e-20 9.87617 	-0.00283899 	5.44648e-20 9.87148 	-0.00332444 	4.71237e-20 9.86679 	-0.0038101 	3.97812e-20 9.86209 	-0.00429596 	3.24374e-20 9.82805 	-0.0056599 	2.8699e-20 9.85068 	-0.0053105 	1.47233e-20 9.84551 	-0.00581836 	-2.24833e-21 9.84034 	-0.00632644 	-1.92195e-20 9.83516 	-0.00683475 	-3.61904e-20 9.79389 	-0.00849538 	-4.59571e-20 9.82227 	-0.00793428 	-2.76291e-20 9.81662 	-0.00846394 	-2.67011e-20 9.81096 	-0.00899385 	-2.57668e-20 9.80529 	-0.00952402 	-2.48262e-20 9.75692 	-0.011457 	-4.63672e-20 9.79088 	-0.0107123 	-3.96551e-20 9.78474 	-0.0112632 	-2.8448e-20 9.77858 	-0.0118145 	-1.724e-20 9.77242 	-0.012366 	-6.03101e-21 9.71727 	-0.0145315 	0 9.75645 	-0.013643 	-3.11282e-21 9.74981 	-0.0142149 	-9.03071e-21 9.74317 	-0.014787 	-1.49481e-20 9.73652 	-0.0153596 	-2.08649e-20 9.67506 	-0.0177066 	-2.02539e-20 9.71897 	-0.0167221 	-2.349e-20 9.71186 	-0.0173146 	-2.33482e-20 9.70474 	-0.0179075 	-2.32053e-20 9.6976 	-0.0185008 	-2.30613e-20 9.63046 	-0.0209713 	-2.15464e-20 9.67851 	-0.019943 	-2.03832e-20 9.67093 	-0.0205561 	-1.42571e-20 9.66333 	-0.0211696 	-8.1304e-21 9.65573 	-0.0217836 	-2.00312e-21 9.58365 	-0.0243158 	-2.76249e-21 9.63514 	-0.0232977 	-3.31628e-21 9.62711 	-0.0239314 	-1.41144e-20 9.61906 	-0.0245657 	-2.49115e-20 9.61101 	-0.0252004 	-3.57074e-20 9.53483 	-0.0277309 	-3.83337e-20 9.58901 	-0.0267773 	4.63881e-21 9.58055 	-0.0274317 	5.80318e-21 9.57207 	-0.0280866 	6.97579e-21 9.56357 	-0.0287421 	8.15664e-21 9.48422 	-0.0312082 	-3.69783e-20 9.54029 	-0.0303719 	-3.48217e-20 9.53142 	-0.0310469 	-2.35629e-20 9.52252 	-0.0317226 	-1.23028e-20 9.51362 	-0.0323989 	-1.04155e-21 9.43203 	-0.03474 	0 9.48919 	-0.0340712 	0 9.47992 	-0.0347668 	0 9.47064 	-0.0354631 	0 9.46134 	-0.03616 	0 9.37847 	-0.0383187 	0 9.43424 	-0.0378939 	0 9.4263 	-0.0385804 	1.13051e-20 9.41665 	-0.039297 	2.29076e-20 9.40165 	-0.0401017 	3.45111e-20 9.32375 	-0.0419372 	4.61421e-20 9.37373 	-0.0418384 	3.41221e-20 9.37079 	-0.0424761 	4.25822e-20 9.36081 	-0.0432124 	5.37588e-20 9.34033 	-0.0440791 	6.63246e-20 9.26806 	-0.0455875 	8.57739e-20 9.31237 	-0.0458015 	6.53708e-20 9.31368 	-0.0464408 	5.11657e-20 9.30338 	-0.0471956 	3.86279e-20 9.27832 	-0.0480658 	3.14104e-20 9.21161 	-0.0492603 	3.92214e-20 9.25044 	-0.0497695 	3.08392e-20 9.25524 	-0.0504593 	1.64746e-20 9.24465 	-0.0512312 	-5.92604e-22 9.2159 	-0.0520484 	-1.22484e-20 9.15459 	-0.0529462 	-1.42048e-20 9.1882 	-0.0537312 	4.11815e-20 9.19575 	-0.0545177 	6.48618e-20 9.1849 	-0.0553058 	6.61717e-20 9.15331 	-0.056018 	4.16049e-20 9.09718 	-0.0566401 	-1.3577e-20 9.12588 	-0.0576798 	-1.12642e-20 9.1355 	-0.058606 	-7.5446e-21 9.12441 	-0.0594093 	-2.30002e-21 9.09078 	-0.0599689 	0 9.03954 	-0.0603382 	0 9.06369 	-0.0616094 	0 9.07474 	-0.0627132 	0 9.06344 	-0.0635303 	0 9.0285 	-0.0638951 	0 8.98182 	-0.0640355 	0 9.0018 	-0.0655135 	0 9.01373 	-0.066827 	0 9.00224 	-0.0676563 	0 8.96663 	-0.0677903 	0 8.92416 	-0.0677267 	0 8.94035 	-0.0693864 	0 8.95269 	-0.0709356 	1.02909e-21 8.94104 	-0.0717756 	8.5769e-21 8.90531 	-0.0716498 	2.72676e-20 8.86669 	-0.0714078 	4.73006e-20 8.87946 	-0.0732239 	1.81217e-19 8.89184 	-0.0750288 	3.13276e-19 8.87981 	-0.0758658 	3.09263e-19 8.84466 	-0.075471 	1.73188e-19 8.80952 	-0.0750761 	3.71104e-20 8.81925 	-0.0770241 	-3.09727e-20 8.82891 	-0.078974 	-9.90506e-20 8.8168 	-0.0797747 	-1.07115e-19 8.78478 	-0.0792527 	-5.82836e-20 8.75276 	-0.0787304 	-9.45222e-21 8.7598 	-0.0807863 	-6.71119e-21 8.76677 	-0.0828443 	-3.96642e-21 8.75498 	-0.0836205 	7.50987e-21 8.72574 	-0.082996 	1.519e-20 8.69651 	-0.0823711 	2.28712e-20 8.70119 	-0.0845123 	1.44325e-20 8.70579 	-0.0866558 	5.98809e-21 8.69439 	-0.0874069 	1.92632e-20 8.66761 	-0.0867037 	5.51662e-20 8.64084 	-0.0859999 	9.10708e-20 8.64346 	-0.0882056 	1.53737e-19 8.646 	-0.0904135 	2.16399e-19 8.63504 	-0.0911398 	2.0568e-19 8.61042 	-0.0903802 	1.20274e-19 8.58583 	-0.0896201 	3.48654e-20 8.58666 	-0.0918709 	2.16354e-20 8.58741 	-0.094124 	8.41015e-21 8.57693 	-0.0948262 	-5.92523e-21 8.55422 	-0.094031 	-2.03615e-20 8.53153 	-0.0932353 	-3.4799e-20 8.53082 	-0.0955139 	-1.99174e-20 8.53002 	-0.0977948 	-5.03233e-21 8.52006 	-0.0984737 	2.0613e-21 8.49902 	-0.0976616 	1.29282e-20 8.47799 	-0.0968489 	2.37966e-20 8.47595 	-0.0991398 	1.22816e-20 8.47383 	-0.101433 	7.616e-22 8.46442 	-0.10209 	1.45698e-20 8.44482 	-0.101277 	2.55229e-20 8.42525 	-0.100465 	3.64741e-20 8.42207 	-0.102755 	7.44381e-20 8.41831 	-0.104911 	1.0905e-19 8.40891 	-0.105517 	1.05393e-19 8.39165 	-0.104887 	6.00271e-20 8.37335 	-0.104089 	9.04846e-21 8.36919 	-0.106368 	1.41061e-20 8.36379 	-0.108265 	1.17911e-20 8.35449 	-0.108881 	-1.50828e-20 8.33949 	-0.1085 	-3.80677e-20 8.3223 	-0.107731 	-5.95461e-20 8.31729 	-0.109991 	-1.79655e-19 8.31064 	-0.111623 	-2.49752e-19 8.30145 	-0.112253 	-2.40008e-19 8.28834 	-0.112127 	-1.65601e-19 8.27212 	-0.111398 	-3.94924e-20 8.26638 	-0.113633 	-2.44921e-20 8.2588 	-0.115004 	-1.16207e-20 8.24969 	-0.115647 	-5.42076e-22 8.23815 	-0.11578 	1.35992e-20 8.22278 	-0.115101 	3.26138e-20 8.21642 	-0.117305 	5.89003e-20 8.20818 	-0.118422 	5.7452e-20 8.19915 	-0.119082 	4.43551e-20 8.18891 	-0.11947 	2.56372e-20 8.17429 	-0.118847 	-1.3988e-20 8.16738 	-0.12102 	-1.13533e-19 8.1587 	-0.121892 	-1.2684e-19 8.14974 	-0.12257 	-1.27196e-19 8.14058 	-0.123208 	-1.24952e-19 8.12662 	-0.122647 	-4.59875e-20 8.11918 	-0.124732 	-3.50605e-20 8.1103 	-0.12543 	-3.86119e-20 8.1014 	-0.126128 	-4.21676e-20 8.09246 	-0.126826 	-4.57276e-20 8.07975 	-0.126512 	-5.90654e-20 8.07175 	-0.128327 	-1.17283e-19 8.06292 	-0.129047 	-1.12127e-19 8.05407 	-0.129767 	-1.06959e-19 8.04518 	-0.130488 	-1.0178e-19 8.03367 	-0.130453 	-4.899e-20 8.02529 	-0.132013 	-3.79575e-20 8.01651 	-0.132756 	-2.72149e-20 8.0077 	-0.1335 	-1.64744e-20 7.99885 	-0.134244 	-5.73594e-21 7.98834 	-0.134478 	4.68272e-21 7.97973 	-0.135799 	-1.70764e-21 7.97099 	-0.136568 	-4.70891e-21 7.96222 	-0.137337 	-7.71073e-21 7.95341 	-0.138107 	-1.07131e-20 7.94373 	-0.138597 	-6.97654e-21 7.93503 	-0.139696 	6.73949e-21 7.92632 	-0.140492 	1.88126e-20 7.91757 	-0.141289 	3.08785e-20 7.90879 	-0.142087 	4.29371e-20 7.8998 	-0.142823 	5.28958e-20 7.89723 	-0.143133 	5.46069e-20 7.89468 	-0.143377 	5.52489e-20 7.89212 	-0.14362 	5.58906e-20 7.88956 	-0.143864 	5.6532e-20 7.88704 	-0.144104 	5.71622e-20 7.88059 	-0.14469 	6.04746e-20 7.87411 	-0.145277 	6.37917e-20 7.86762 	-0.145864 	6.71135e-20 7.86112 	-0.146452 	7.04401e-20 7.8556 	-0.146897 	6.62156e-20 7.84602 	-0.147888 	5.13174e-20 7.83692 	-0.148751 	3.72265e-20 7.82777 	-0.149614 	2.31323e-20 7.81858 	-0.150478 	9.03499e-21 7.81177 	-0.151003 	0 7.80149 	-0.152207 	0 7.79239 	-0.153105 	0 7.78324 	-0.154002 	0 7.77405 	-0.154901 	0 7.76862 	-0.15527 	0 7.75764 	-0.156684 	1.81698e-21 7.74852 	-0.157618 	6.73181e-21 7.73937 	-0.158553 	1.16453e-20 7.73017 	-0.159488 	1.65573e-20 7.72609 	-0.159711 	2.13911e-20 7.7144 	-0.16133 	5.29456e-20 7.70527 	-0.162303 	5.44495e-20 7.6961 	-0.163277 	5.59619e-20 7.68704 	-0.16423 	5.6528e-20 7.68411 	-0.164335 	2.0178e-20 7.6721 	-0.166065 	1.48664e-20 7.66258 	-0.167172 	5.30817e-21 7.65338 	-0.168187 	-4.87401e-21 7.64573 	-0.168985 	-1.36396e-20 7.64266 	-0.169155 	-1.83223e-20 7.63069 	-0.170907 	-5.30699e-20 7.6204 	-0.172235 	-6.47143e-20 7.61117 	-0.173295 	-6.17173e-20 7.6049 	-0.173947 	-4.04231e-20 7.60168 	-0.174183 	-4.84216e-22 7.58974 	-0.175961 	-3.97256e-20 7.57869 	-0.177508 	-6.45265e-20 7.56941 	-0.178615 	-6.18144e-20 7.5645 	-0.179129 	-2.85445e-20 7.56112 	-0.179434 	1.55253e-20 7.5492 	-0.181242 	1.03571e-20 7.53738 	-0.183006 	4.58028e-21 7.52806 	-0.184163 	-9.51144e-21 7.52447 	-0.184548 	-1.85629e-20 7.52093 	-0.184924 	-2.75547e-20 7.50901 	-0.186766 	-1.75669e-20 7.49702 	-0.188607 	-7.57426e-21 7.48845 	-0.189769 	-7.05636e-21 7.48476 	-0.19022 	-1.60894e-20 7.48105 	-0.19067 	-2.51217e-20 7.46913 	-0.192549 	-1.50526e-20 7.45714 	-0.194428 	-4.97837e-21 7.4492 	-0.195634 	2.12408e-21 7.44533 	-0.196161 	6.46975e-21 7.44144 	-0.196688 	1.0815e-20 7.42951 	-0.198608 	4.2898e-20 7.4175 	-0.200529 	7.49781e-20 7.41017 	-0.201782 	7.48342e-20 7.40611 	-0.202388 	4.21746e-20 7.40203 	-0.202995 	9.51206e-21 7.39008 	-0.204961 	4.61441e-21 7.37834 	-0.20689 	-5.24444e-22 7.37161 	-0.208159 	-9.85668e-21 7.36704 	-0.208921 	-3.02231e-20 7.36276 	-0.209609 	-5.21714e-20 7.35077 	-0.211626 	-1.36638e-19 7.34049 	-0.213413 	-1.90715e-19 7.33363 	-0.214751 	-1.85425e-19 7.32807 	-0.215778 	-1.36119e-19 7.32358 	-0.216552 	-5.10246e-20 7.31154 	-0.218624 	-2.84704e-20 7.30269 	-0.220278 	-1.48839e-20 7.29568 	-0.221688 	-6.54415e-21 7.28913 	-0.222979 	-8.93957e-22 7.28441 	-0.223842 	-4.95774e-21 7.27231 	-0.225972 	-3.49129e-20 7.26485 	-0.227502 	-3.49118e-20 7.25768 	-0.228988 	-3.26921e-20 7.25045 	-0.230473 	-3.04571e-20 7.24518 	-0.231496 	-3.5886e-21 7.23419 	-0.233538 	-4.918e-23 7.2269 	-0.235102 	-3.50847e-23 7.21955 	-0.236667 	-2.09966e-23 7.21214 	-0.238231 	-6.91574e-24 7.20581 	-0.239532 	0 7.19625 	-0.241449 	-1.59806e-23 7.18877 	-0.243095 	-4.46477e-23 7.18122 	-0.244741 	-7.33279e-23 7.17361 	-0.246386 	-1.02021e-22 7.16623 	-0.247964 	-6.41551e-22 7.16302 	-0.248636 	-3.37538e-21 7.16036 	-0.249238 	-2.55245e-21 7.15769 	-0.249839 	-1.72741e-21 7.15501 	-0.250441 	-9.00281e-22 7.15239 	-0.251027 	-9.33248e-23 7.14703 	-0.252153 	1.53958e-21 7.14163 	-0.25328 	3.1803e-21 7.13621 	-0.254406 	4.82887e-21 7.13075 	-0.255532 	6.4853e-21 7.12545 	-0.256534 	9.43198e-22 7.11747 	-0.258463 	-1.04162e-20 7.10907 	-0.26027 	-1.28779e-20 7.1006 	-0.262078 	-1.53586e-20 7.09206 	-0.263884 	-1.78583e-20 7.0839 	-0.265381 	2.36306e-21 7.07621 	-0.267581 	1.39402e-22 7.06755 	-0.269474 	9.33352e-23 7.05881 	-0.271367 	4.72423e-23 7.05 	-0.273259 	1.12288e-24 7.04181 	-0.274658 	3.85656e-21 7.03421 	-0.277065 	5.06687e-22 7.02545 	-0.279108 	0 7.01643 	-0.281086 	0 7.00757 	-0.282884 	0 6.99907 	-0.284367 	0 6.99117 	-0.286851 	0 6.98269 	-0.289175 	-2.54197e-21 6.97335 	-0.291237 	-9.22074e-21 6.96442 	-0.292931 	-1.59179e-20 6.95556 	-0.294509 	-2.2619e-20 6.94733 	-0.297069 	-1.46332e-20 6.939 	-0.299629 	-6.64125e-21 6.92956 	-0.301737 	-6.58938e-21 6.9204 	-0.303409 	-1.71486e-20 6.91116 	-0.305081 	-2.77072e-20 6.90258 	-0.307715 	-4.48736e-20 6.89389 	-0.310349 	-6.20362e-20 6.88496 	-0.312552 	-5.70991e-20 6.87539 	-0.314314 	-2.8952e-20 6.86575 	-0.316077 	-8.00474e-22 6.85678 	-0.318782 	-5.74265e-22 6.84773 	-0.321472 	-1.07279e-22 6.83907 	-0.323727 	7.25092e-21 6.82926 	-0.325637 	1.96285e-20 6.81919 	-0.327486 	3.29012e-20 6.80981 	-0.33026 	1.95723e-20 6.80056 	-0.33282 	9.83174e-21 6.79145 	-0.335153 	3.89671e-21 6.78189 	-0.337367 	3.23913e-21 6.77134 	-0.339299 	1.53551e-20 6.76153 	-0.342138 	-2.60078e-20 6.75202 	-0.344566 	-2.85995e-20 6.74243 	-0.346972 	-2.91741e-20 6.73275 	-0.349376 	-2.97283e-20 6.72207 	-0.351502 	-9.35953e-21 6.71196 	-0.354218 	2.70338e-21 6.70197 	-0.356693 	2.93858e-21 6.69187 	-0.359168 	3.14749e-21 6.68167 	-0.361641 	3.33e-21 6.67124 	-0.364077 	1.04337e-21 6.66965 	-0.364489 	1.02168e-21 6.66809 	-0.364869 	9.93258e-22 6.66652 	-0.36525 	9.64835e-22 6.66495 	-0.36563 	9.36417e-22 6.6634 	-0.366005 	9.08375e-22 6.65541 	-0.368168 	7.08303e-22 6.64736 	-0.370329 	5.08105e-22 6.63924 	-0.37249 	3.0778e-22 6.63105 	-0.37465 	1.07327e-22 6.62256 	-0.376627 	-4.94804e-21 6.61366 	-0.379447 	1.36138e-21 6.60371 	-0.382045 	4.0102e-21 6.59367 	-0.384642 	6.65632e-21 6.58353 	-0.387239 	9.29972e-21 6.57275 	-0.38944 	6.52191e-21 6.56428 	-0.392536 	8.24121e-21 6.55393 	-0.395222 	7.79878e-21 6.54332 	-0.397868 	7.14873e-21 6.53237 	-0.400351 	5.56465e-21 6.52091 	-0.402555 	2.37942e-21 6.51183 	-0.405687 	3.72013e-21 6.50209 	-0.408692 	3.68856e-21 6.49088 	-0.411379 	2.04411e-22 6.47897 	-0.413686 	-5.42369e-21 6.46687 	-0.41594 	-1.1356e-20 6.45716 	-0.4191 	1.43948e-20 6.44732 	-0.422258 	4.01393e-20 6.43591 	-0.424973 	4.56987e-20 6.42325 	-0.427267 	3.25074e-20 6.41049 	-0.429561 	1.93139e-20 6.40011 	-0.432738 	1.20997e-20 6.3896 	-0.435915 	4.88855e-21 6.37829 	-0.438698 	5.60029e-21 6.36508 	-0.441054 	1.09157e-20 6.35162 	-0.443377 	1.65855e-20 6.34053 	-0.446561 	1.2162e-20 6.32893 	-0.449538 	5.16989e-21 6.31685 	-0.452314 	-4.29698e-21 6.3043 	-0.455006 	-1.33794e-20 6.2901 	-0.457344 	-2.08291e-20 6.2782 	-0.460489 	-1.46489e-20 6.26547 	-0.463267 	-1.60107e-20 6.25262 	-0.466044 	-1.73829e-20 6.23966 	-0.468819 	-1.87653e-20 6.22579 	-0.471414 	-2.26206e-20 6.21907 	-0.472977 	-2.49274e-20 6.21207 	-0.474416 	-2.15092e-20 6.20503 	-0.475854 	-1.80868e-20 6.19796 	-0.477292 	-1.46603e-20 6.19117 	-0.478667 	-1.13783e-20 6.18481 	-0.480011 	-7.64844e-21 6.17842 	-0.481355 	-3.91289e-21 6.172 	-0.482698 	-1.71631e-22 6.16556 	-0.484042 	3.57535e-21 6.15936 	-0.485275 	-2.77995e-21 6.14592 	-0.488196 	-7.7259e-21 6.13217 	-0.490946 	-9.9076e-21 6.1183 	-0.493695 	-1.21085e-20 6.10431 	-0.496443 	-1.43287e-20 6.09099 	-0.498849 	-1.15383e-20 6.07708 	-0.502007 	-1.75894e-20 6.06261 	-0.504805 	-2.07797e-20 6.0479 	-0.507512 	-2.3277e-20 6.03352 	-0.510018 	-2.19076e-20 6.01942 	-0.512343 	-1.70854e-20 6.00468 	-0.515445 	-8.75665e-21 5.98981 	-0.518546 	-4.41715e-22 5.97441 	-0.521157 	-3.01269e-22 5.95954 	-0.52342 	-2.33976e-21 5.94454 	-0.525684 	-4.38145e-21 5.92895 	-0.528714 	-1.75661e-20 5.91321 	-0.531744 	-3.07524e-20 5.89799 	-0.534431 	-3.10985e-20 5.88221 	-0.536614 	-1.85073e-20 5.8663 	-0.538797 	-5.91084e-21 5.84982 	-0.541738 	-4.46829e-21 5.83361 	-0.544467 	-2.97362e-21 5.81763 	-0.547009 	-1.43287e-21 5.80149 	-0.549517 	0 5.78465 	-0.551601 	0 5.76745 	-0.554338 	1.6212e-21 5.75069 	-0.556762 	8.49226e-21 5.73381 	-0.559186 	1.53705e-20 5.71679 	-0.561608 	2.22559e-20 5.6996 	-0.564006 	2.90097e-20 5.69863 	-0.564144 	2.80647e-20 5.6977 	-0.564266 	2.84095e-20 5.69676 	-0.564388 	2.87545e-20 5.69583 	-0.56451 	2.90996e-20 5.69489 	-0.564632 	2.94433e-20 5.67888 	-0.566828 	3.91035e-20 5.66275 	-0.569024 	4.88312e-20 5.64652 	-0.57122 	5.86268e-20 5.63017 	-0.573415 	6.84911e-20 5.61452 	-0.575319 	2.76032e-20 5.59702 	-0.577951 	1.80329e-20 5.57913 	-0.580114 	1.10489e-20 5.5611 	-0.582277 	4.05779e-21 5.54346 	-0.584251 	2.55594e-21 5.52637 	-0.585965 	8.64959e-21 5.50803 	-0.588442 	4.39849e-21 5.48955 	-0.590918 	1.55171e-22 5.47086 	-0.592838 	2.10238e-21 5.45305 	-0.594348 	1.39855e-20 5.43511 	-0.595859 	2.58889e-20 5.41591 	-0.598141 	1.77057e-20 5.39658 	-0.600423 	9.53788e-21 5.3783 	-0.602227 	1.16751e-20 5.3597 	-0.603592 	1.80471e-20 5.34093 	-0.604876 	2.51785e-20 5.32091 	-0.60694 	-1.37499e-20 5.30172 	-0.608605 	-1.97646e-20 5.28272 	-0.610138 	-1.48228e-20 5.2636 	-0.61167 	-9.81761e-21 5.24415 	-0.612878 	1.6395e-20 5.2333 	-0.613787 	1.71297e-20 5.22298 	-0.614451 	1.28937e-20 5.21264 	-0.615115 	8.6581e-21 5.20226 	-0.615778 	4.42284e-21 5.19221 	-0.616419 	3.3228e-22 5.1831 	-0.617049 	-3.58888e-21 5.17398 	-0.617679 	-7.51003e-21 5.16483 	-0.618308 	-1.14312e-20 5.15565 	-0.618938 	-1.53523e-20 5.14708 	-0.619339 	-1.36039e-20 5.12763 	-0.620669 	-3.4765e-20 5.10804 	-0.621696 	-4.07217e-20 5.08834 	-0.622723 	-4.67026e-20 5.06888 	-0.623619 	-4.60922e-20 5.05066 	-0.624014 	-2.02056e-20 5.03066 	-0.625254 	-4.13255e-20 5.01054 	-0.626396 	-5.91008e-20 4.99033 	-0.627072 	-6.04598e-20 4.97167 	-0.627107 	-2.55209e-20 4.95293 	-0.627143 	9.45731e