# vtk DataFile Version 2.0
track0
ASCII
DATASET POLYDATA
POINTS 11960 float
-0.0205 0.001 1e-05
-0.0202034 0.0010001 1e-05
-0.0199069 0.00100035 1e-05
-0.0196103 0.00100072 1e-05
-0.0193137 0.0010012 1e-05
-0.0190172 0.00100178 1e-05
-0.0187132 0.00100302 1e-05
-0.0184093 0.00100345 1e-05
-0.0181054 0.00100385 1e-05
-0.0178015 0.00100422 1e-05
-0.0174976 0.00100457 1e-05
-0.0172058 0.00100548 1e-05
-0.016914 0.00100571 1e-05
-0.0166222 0.00100595 1e-05
-0.0163305 0.00100621 1e-05
-0.0160387 0.00100648 1e-05
-0.0157586 0.00100727 1e-05
-0.0154784 0.0010076 1e-05
-0.0151983 0.00100797 1e-05
-0.0149182 0.00100838 1e-05
-0.0146381 0.00100885 1e-05
-0.0143692 0.00100972 1e-05
-0.0141002 0.00101027 1e-05
-0.0138313 0.00101087 1e-05
-0.0135624 0.0010115 1e-05
-0.0132934 0.00101218 1e-05
-0.0130353 0.00101315 1e-05
-0.0127771 0.00101389 1e-05
-0.0125189 0.00101467 1e-05
-0.0122607 0.00101548 1e-05
-0.0120025 0.00101633 1e-05
-0.0117547 0.00101735 1e-05
-0.0115068 0.00101823 1e-05
-0.0112589 0.00101914 1e-05
-0.0110111 0.00102008 1e-05
-0.0107632 0.00102103 1e-05
-0.0105252 0.00102209 1e-05
-0.0102873 0.00102306 1e-05
-0.0100493 0.00102406 1e-05
-0.00981133 0.00102507 1e-05
-0.00957337 0.00102609 1e-05
-0.00934491 0.00102716 1e-05
-0.00911645 0.00102819 1e-05
-0.00888799 0.00102922 1e-05
-0.00865954 0.00103028 1e-05
-0.00843108 0.00103134 1e-05
-0.00821175 0.0010324 1e-05
-0.00799242 0.00103345 1e-05
-0.00777309 0.00103451 1e-05
-0.00755376 0.00103557 1e-05
-0.00733443 0.00103664 1e-05
-0.00718941 0.00103737 1e-05
-0.00704439 0.00103808 1e-05
-0.00689937 0.00103881 1e-05
-0.00675434 0.00103953 1e-05
-0.00661031 0.00104025 1e-05
-0.00654457 0.00104058 1e-05
-0.00647883 0.00104092 1e-05
-0.00641308 0.00104125 1e-05
-0.00634734 0.00104158 1e-05
-0.0062816 0.00104191 1e-05
-0.00607944 0.00104294 1e-05
-0.00587729 0.00104397 1e-05
-0.00567514 0.001045 1e-05
-0.00547298 0.00104604 1e-05
-0.00527083 0.00104708 1e-05
-0.00507675 0.00104807 1e-05
-0.00488267 0.00104907 1e-05
-0.0046886 0.00105008 1e-05
-0.00449452 0.00105108 1e-05
-0.00430044 0.00105209 1e-05
-0.00411412 0.00105305 1e-05
-0.0039278 0.00105401 1e-05
-0.00374147 0.00105498 1e-05
-0.00355515 0.00105595 1e-05
-0.00336883 0.00105691 1e-05
-0.00318995 0.00105783 1e-05
-0.00301107 0.00105876 1e-05
-0.00283219 0.00105969 1e-05
-0.00265331 0.00106061 1e-05
-0.00247443 0.00106154 1e-05
-0.0023027 0.00106242 1e-05
-0.00213097 0.0010633 1e-05
-0.00195924 0.00106418 1e-05
-0.0017875 0.00106507 1e-05
-0.00161577 0.00106595 1e-05
-0.0014509 0.00106679 1e-05
-0.00128603 0.00106762 1e-05
-0.00112116 0.00106846 1e-05
-0.000956289 0.00106928 1e-05
-0.000791418 0.00107011 1e-05
-0.000633135 0.00107088 1e-05
-0.000474851 0.00107164 1e-05
-0.000316567 0.00107239 1e-05
-0.000158283 0.00107312 1e-05
0 0.00107383 1e-05
0.000105677 0.00107429 1e-05
0.000211355 0.00107474 1e-05
0.000317032 0.00107518 1e-05
0.00042271 0.0010756 1e-05
0.000528387 0.00107601 1e-05
0.000634886 0.0010764 1e-05
0.000741385 0.00107679 1e-05
0.000847885 0.00107717 1e-05
0.000954384 0.00107753 1e-05
0.00106088 0.00107788 1e-05
0.00116821 0.00107821 1e-05
0.00127554 0.00107854 1e-05
0.00138286 0.00107886 1e-05
0.00149019 0.00107916 1e-05
0.00159752 0.00107946 1e-05
0.00170568 0.00107973 1e-05
0.00181384 0.00108001 1e-05
0.001922 0.00108027 1e-05
0.00203016 0.00108052 1e-05
0.00213833 0.00108077 1e-05
0.00224733 0.00108099 1e-05
0.00235633 0.00108122 1e-05
0.00246533 0.00108144 1e-05
0.00257434 0.00108165 1e-05
0.00268334 0.00108185 1e-05
0.00279319 0.00108204 1e-05
0.00290304 0.00108223 1e-05
0.00301289 0.00108241 1e-05
0.00312274 0.00108259 1e-05
0.00323259 0.00108276 1e-05
0.00334329 0.00108291 1e-05
0.003454 0.00108307 1e-05
0.0035647 0.00108323 1e-05
0.0036754 0.00108338 1e-05
0.00378611 0.00108352 1e-05
0.00389767 0.00108365 1e-05
0.00400924 0.00108379 1e-05
0.0041208 0.00108391 1e-05
0.00423237 0.00108404 1e-05
0.00434393 0.00108416 1e-05
0.00445636 0.00108427 1e-05
0.00456879 0.00108438 1e-05
0.00468123 0.00108449 1e-05
0.00479366 0.00108459 1e-05
0.00490609 0.00108469 1e-05
0.0050194 0.00108478 1e-05
0.0051327 0.00108486 1e-05
0.00524601 0.00108495 1e-05
0.00535932 0.00108503 1e-05
0.00547262 0.0010851 1e-05
0.00549821 0.00108512 1e-05
0.0055238 0.00108514 1e-05
0.00554939 0.00108515 1e-05
0.00557498 0.00108517 1e-05
0.00560029 0.00108518 1e-05
0.00568895 0.00108523 1e-05
0.0057776 0.00108528 1e-05
0.00586625 0.00108533 1e-05
0.0059549 0.00108537 1e-05
0.00604356 0.00108541 1e-05
0.00615863 0.00108546 1e-05
0.00627371 0.0010855 1e-05
0.00638878 0.00108554 1e-05
0.00650386 0.00108557 1e-05
0.00661893 0.0010856 1e-05
0.0067349 0.00108562 1e-05
0.00685087 0.00108564 1e-05
0.00696684 0.00108566 1e-05
0.00708281 0.00108567 1e-05
0.00719878 0.00108567 1e-05
0.00731565 0.00108567 1e-05
0.00743252 0.00108566 1e-05
0.00754939 0.00108565 1e-05
0.00766626 0.00108563 1e-05
0.00778313 0.00108561 1e-05
0.00790091 0.00108558 1e-05
0.00801869 0.00108554 1e-05
0.00813647 0.0010855 1e-05
0.00825425 0.00108546 1e-05
0.00837203 0.0010854 1e-05
0.00849073 0.00108534 1e-05
0.00860942 0.00108527 1e-05
0.00872812 0.0010852 1e-05
0.00884682 0.00108513 1e-05
0.00896551 0.00108504 1e-05
0.00908513 0.00108494 1e-05
0.00920475 0.00108484 1e-05
0.00932437 0.00108474 1e-05
0.00944398 0.00108463 1e-05
0.0095636 0.00108451 1e-05
0.00968415 0.00108437 1e-05
0.0098047 0.00108424 1e-05
0.00992525 0.0010841 1e-05
0.0100458 0.00108396 1e-05
0.0101663 0.0010838 1e-05
0.0102878 0.00108362 1e-05
0.0104093 0.00108345 1e-05
0.0105308 0.00108328 1e-05
0.0106523 0.00108309 1e-05
0.0107738 0.0010829 1e-05
0.0108962 0.00108268 1e-05
0.0110186 0.00108246 1e-05
0.0111411 0.00108225 1e-05
0.0112635 0.00108202 1e-05
0.0113859 0.00108179 1e-05
0.0115093 0.00108152 1e-05
0.0116327 0.00108126 1e-05
0.0117561 0.001081 1e-05
0.0118795 0.00108073 1e-05
0.0120028 0.00108045 1e-05
0.0121272 0.00108014 1e-05
0.0122515 0.00107984 1e-05
0.0123759 0.00107953 1e-05
0.0125002 0.00107921 1e-05
0.0126245 0.00107888 1e-05
0.0127498 0.00107852 1e-05
0.0128752 0.00107817 1e-05
0.0130005 0.00107781 1e-05
0.0131258 0.00107744 1e-05
0.0132511 0.00107707 1e-05
0.0133774 0.00107665 1e-05
0.0135036 0.00107625 1e-05
0.0136299 0.00107584 1e-05
0.0137562 0.00107542 1e-05
0.0138825 0.00107499 1e-05
0.0140098 0.00107452 1e-05
0.014137 0.00107406 1e-05
0.0142643 0.00107359 1e-05
0.0143915 0.00107312 1e-05
0.0145188 0.00107263 1e-05
0.0146471 0.00107211 1e-05
0.0147753 0.00107159 1e-05
0.0149036 0.00107107 1e-05
0.0150318 0.00107053 1e-05
0.0151601 0.00106999 1e-05
0.0152893 0.0010694 1e-05
0.0154186 0.00106883 1e-05
0.0155478 0.00106824 1e-05
0.0156771 0.00106764 1e-05
0.0158063 0.00106703 1e-05
0.0159366 0.00106639 1e-05
0.0160668 0.00106575 1e-05
0.0161971 0.0010651 1e-05
0.0163274 0.00106444 1e-05
0.0164576 0.00106377 1e-05
0.0165889 0.00106307 1e-05
0.0167201 0.00106236 1e-05
0.0168514 0.00106164 1e-05
0.0169827 0.00106092 1e-05
0.0171139 0.00106018 1e-05
0.0172462 0.00105941 1e-05
0.0173785 0.00105864 1e-05
0.0175108 0.00105785 1e-05
0.0176431 0.00105706 1e-05
0.0177754 0.00105625 1e-05
0.0179087 0.00105542 1e-05
0.018042 0.00105457 1e-05
0.0181753 0.00105372 1e-05
0.0183087 0.00105285 1e-05
0.018442 0.00105197 1e-05
0.0185763 0.00105107 1e-05
0.0187107 0.00105016 1e-05
0.018845 0.00104923 1e-05
0.0189794 0.00104829 1e-05
0.0191137 0.00104734 1e-05
0.0192491 0.00104637 1e-05
0.0193845 0.00104539 1e-05
0.0195199 0.00104439 1e-05
0.0196553 0.00104337 1e-05
0.0197907 0.00104234 1e-05
0.0199272 0.00104131 1e-05
0.0200636 0.00104025 1e-05
0.0202001 0.00103917 1e-05
0.0203365 0.00103807 1e-05
0.020473 0.00103697 1e-05
0.0206105 0.00103587 1e-05
0.020748 0.00103473 1e-05
0.0208855 0.00103357 1e-05
0.021023 0.0010324 1e-05
0.0211606 0.00103123 1e-05
0.0212991 0.00103004 1e-05
0.0214377 0.00102883 1e-05
0.0215763 0.00102759 1e-05
0.0217149 0.00102634 1e-05
0.0218535 0.00102509 1e-05
0.0219931 0.00102383 1e-05
0.0221328 0.00102255 1e-05
0.0222724 0.00102123 1e-05
0.0224121 0.00101989 1e-05
0.0225517 0.00101856 1e-05
0.0226925 0.00101723 1e-05
0.0228332 0.00101586 1e-05
0.022974 0.00101446 1e-05
0.0231147 0.00101305 1e-05
0.0232555 0.00101164 1e-05
0.0233973 0.00101023 1e-05
0.0235391 0.00100878 1e-05
0.023681 0.0010073 1e-05
0.0238228 0.0010058 1e-05
0.0239647 0.00100431 1e-05
0.0241076 0.00100282 1e-05
0.0242505 0.00100129 1e-05
0.0243935 0.000999724 1e-05
0.0245364 0.000998143 1e-05
0.0246794 0.000996572 1e-05
0.0248234 0.000994998 1e-05
0.0249675 0.000993385 1e-05
0.0251115 0.000991733 1e-05
0.0252556 0.000990068 1e-05
0.0253996 0.000988413 1e-05
0.0255448 0.000986755 1e-05
0.02569 0.000985057 1e-05
0.0258351 0.000983319 1e-05
0.0259803 0.000981568 1e-05
0.0261255 0.000979827 1e-05
0.0262718 0.000978082 1e-05
0.0264181 0.000976297 1e-05
0.0265644 0.000974474 1e-05
0.0267107 0.000972638 1e-05
0.026857 0.00097081 1e-05
0.0270044 0.000968977 1e-05
0.0271519 0.000967103 1e-05
0.0272993 0.000965195 1e-05
0.0274467 0.000963273 1e-05
0.0275942 0.000961355 1e-05
0.0277428 0.000959431 1e-05
0.0278914 0.000957466 1e-05
0.0280399 0.000955471 1e-05
0.0281885 0.000953462 1e-05
0.0283371 0.000951451 1e-05
0.0284869 0.000949435 1e-05
0.0286366 0.000947377 1e-05
0.0287863 0.000945291 1e-05
0.0289361 0.000943192 1e-05
0.0290858 0.000941088 1e-05
0.0292367 0.000938976 1e-05
0.0293876 0.000936821 1e-05
0.0295385 0.000934644 1e-05
0.0296894 0.000932452 1e-05
0.0298403 0.000930251 1e-05
0.0299924 0.00092804 1e-05
0.0301445 0.000925786 1e-05
0.0302966 0.000923514 1e-05
0.0304486 0.000921227 1e-05
0.0306007 0.000918925 1e-05
0.030754 0.000916612 1e-05
0.0309072 0.000914258 1e-05
0.0310605 0.000911888 1e-05
0.0312138 0.000909501 1e-05
0.031367 0.0009071 1e-05
0.0315215 0.000904681 1e-05
0.0316759 0.000902226 1e-05
0.0318304 0.000899754 1e-05
0.0319848 0.000897265 1e-05
0.0321393 0.00089476 1e-05
0.0322949 0.000892232 1e-05
0.0324506 0.000889672 1e-05
0.0326062 0.000887094 1e-05
0.0327619 0.0008845 1e-05
0.0329175 0.000881887 1e-05
0.0330744 0.000879247 1e-05
0.0332313 0.000876577 1e-05
[...]
POINT_DATA 11960
 FIELD attributes 2
p 1 11960 float
-6.69422 -6.68657 -6.67855 -6.6705 -6.66242 -6.66293 -6.63588 -6.65199 -6.66809 -6.68418 -6.74537 -6.75152 -6.79038 -6.82925 -6.86811 -6.92975 -6.92903 -6.95609 -6.98318 -7.01028 -7.05686 -7.0607 -7.08411 -7.10755 -7.131 -7.1692 -7.17845 -7.20025 -7.22207 -7.24389 -7.27517 -7.28654 -7.30585 -7.32516 -7.34448 -7.36958 -7.38191 -7.39911 -7.41631 -7.43351 -7.45405 -7.4671 -7.48292 -7.49874 -7.51456 -7.53203 -7.54557 -7.56045 -7.57534 -7.59022 -7.60563 -7.61499 -7.62477 -7.63456 -7.64434 -7.65405 -7.65849 -7.66292 -7.66735 -7.67179 -7.67607 -7.68989 -7.7036 -7.71731 -7.73103 -7.74425 -7.75802 -7.77142 -7.78482 -7.79822 -7.81092 -7.82471 -7.83798 -7.85124 -7.86451 -7.87697 -7.89094 -7.90432 -7.9177 -7.93108 -7.94363 -7.95829 -7.97241 -7.98652 -8.00064 -8.01398 -8.03081 -8.04751 -8.06422 -8.08092 -8.09695 -8.11572 -8.13395 -8.15218 -8.17042 -8.18701 -8.20147 -8.21361 -8.22575 -8.23788 -8.24767 -8.25742 -8.26396 -8.2705 -8.27704 -8.28116 -8.28945 -8.29447 -8.2995 -8.30452 -8.30686 -8.31489 -8.31941 -8.32394 -8.32846 -8.3299 -8.33644 -8.33963 -8.34281 -8.346 -8.3463 -8.35121 -8.35341 -8.35561 -8.3578 -8.35772 -8.36144 -8.3632 -8.36495 -8.36671 -8.36688 -8.36965 -8.37113 -8.37261 -8.3741 -8.37464 -8.37664 -8.37791 -8.37918 -8.38045 -8.3813 -8.38275 -8.38389 -8.38504 -8.38618 -8.38726 -8.38755 -8.38779 -8.38804 -8.38828 -8.38853 -8.38938 -8.39023 -8.39107 -8.39192 -8.39283 -8.39392 -8.39503 -8.39614 -8.39725 -8.3984 -8.3996 -8.40078 -8.40196 -8.40314 -8.40434 -8.40566 -8.40695 -8.40824 -8.40954 -8.41087 -8.41226 -8.41368 -8.41509 -8.41651 -8.41809 -8.41944 -8.42099 -8.42253 -8.42408 -8.42601 -8.42722 -8.4289 -8.43058 -8.43226 -8.43466 -8.43563 -8.43744 -8.43926 -8.44107 -8.44405 -8.44468 -8.44663 -8.44857 -8.45052 -8.45416 -8.45438 -8.45646 -8.45853 -8.4606 -8.46496 -8.46473 -8.46693 -8.46912 -8.47132 -8.47643 -8.47573 -8.47803 -8.48034 -8.48265 -8.4885 -8.48735 -8.48976 -8.49217 -8.49458 -8.50113 -8.49958 -8.50208 -8.50459 -8.5071 -8.51428 -8.51239 -8.51498 -8.51758 -8.52017 -8.52788 -8.52587 -8.52842 -8.5311 -8.53417 -8.54189 -8.54014 -8.54236 -8.5451 -8.54867 -8.55626 -8.55484 -8.55675 -8.55956 -8.56356 -8.57092 -8.56989 -8.57155 -8.57442 -8.57879 -8.58586 -8.58527 -8.58674 -8.58967 -8.59434 -8.60107 -8.60095 -8.60232 -8.60531 -8.61018 -8.61654 -8.61689 -8.61824 -8.62128 -8.62627 -8.63223 -8.63304 -8.63444 -8.63752 -8.64252 -8.64808 -8.64933 -8.65084 -8.65395 -8.65889 -8.66404 -8.6657 -8.66737 -8.67053 -8.6753 -8.68007 -8.68209 -8.68411 -8.6873 -8.69172 -8.69613 -8.69846 -8.7008 -8.704 -8.70809 -8.71218 -8.71478 -8.71738 -8.72057 -8.72438 -8.72818 -8.73099 -8.73381 -8.737 -8.74055 -8.74411 -8.74709 -8.75008 -8.75325 -8.7566 -8.75994 -8.76305 -8.76617 -8.76932 -8.77249 -8.77565 -8.77886 -8.78207 -8.78519 -8.78821 -8.79124 -8.7945 -8.79775 -8.80084 -8.80378 -8.80669 -8.80998 -8.81322 -8.81627 -8.81917 -8.82201 -8.82529 -8.82848 -8.83149 -8.83437 -8.83714 -8.84039 -8.84349 -8.84647 -8.84934 -8.85204 -8.85524 -8.85824 -8.86116 -8.86402 -8.86668 -8.8698 -8.87269 -8.87555 -8.8784 -8.88101 -8.88402 -8.88682 -8.88961 -8.89241 -8.895 -8.89788 -8.90061 -8.90333 -8.90605 -8.90864 -8.91139 -8.91404 -8.91669 -8.91934 -8.9219 -8.92452 -8.92709 -8.92966 -8.93223 -8.93476 -8.93727 -8.93975 -8.94224 -8.94473 -8.94721 -8.94792 -8.94862 -8.94933 -8.95003 -8.95073 -8.95244 -8.95415 -8.95586 -8.95757 -8.95929 -8.96161 -8.96393 -8.96625 -8.96857 -8.9709 -8.97313 -8.97533 -8.97754 -8.97975 -8.98195 -8.98409 -8.98616 -8.98824 -8.99032 -8.99237 -8.99441 -8.99634 -8.99828 -9.00021 -9.00209 -9.00401 -9.00581 -9.00758 -9.00933 -9.01104 -9.01281 -9.01448 -9.01607 -9.01763 -9.01913 -9.02074 -9.02228 -9.02369 -9.02501 -9.0263 -9.02772 -9.02914 -9.03033 -9.03138 -9.03243 -9.03364 -9.03486 -9.03583 -9.0366 -9.03738 -9.03835 -9.03934 -9.04006 -9.04052 -9.04099 -9.04169 -9.04239 -9.04284 -9.04295 -9.04307 -9.04345 -9.04382 -9.04393 -9.0437 -9.04341 -9.04343 -9.04335 -9.04305 -9.04252 -9.04179 -9.04139 -9.04077 -9.04002 -9.03917 -9.03793 -9.03707 -9.03582 -9.03455 -9.03328 -9.03154 -9.03003 -9.02816 -9.0263 -9.02444 -9.02229 -9.01999 -9.01746 -9.01493 -9.01241 -9.00981 -9.00874 -9.00759 -9.00645 -9.00531 -9.0042 -9.00212 -9.00005 -8.99798 -8.99591 -8.99381 -8.98989 -8.98588 -8.98188 -8.97788 -8.97376 -8.9691 -8.96417 -8.95925 -8.95433 -8.94914 -8.94362 -8.93774 -8.9318 -8.92574 -8.91945 -8.91287 -8.90611 -8.89905 -8.89168 -8.88421 -8.87646 -8.86872 -8.86043 -8.85167 -8.84293 -8.83391 -8.82491 -8.81537 -8.80524 -8.79512 -8.78474 -8.77436 -8.76339 -8.75189 -8.7403 -8.72848 -8.71633 -8.70383 -8.69115 -8.67801 -8.66464 -8.65056 -8.63646 -8.62236 -8.60778 -8.59242 -8.5766 -8.5608 -8.54501 -8.52915 -8.52658 -8.52394 -8.5213 -8.51866 -8.51606 -8.50114 -8.48623 -8.47133 -8.45644 -8.4413 -8.42219 -8.4028 -8.38342 -8.36406 -8.34407 -8.32337 -8.3021 -8.28079 -8.2592 -8.23714 -8.21445 -8.19159 -8.16827 -8.14426 -8.12014 -8.0954 -8.07066 -8.04519 -8.01897 -7.99275 -7.96588 -7.93903 -7.91136 -7.88303 -7.85465 -7.82561 -7.79613 -7.76621 -7.73618 -7.70561 -7.67428 -7.64212 -7.60997 -7.57784 -7.54544 -7.52783 -7.50992 -7.49203 -7.47414 -7.45702 -7.44048 -7.42393 -7.40739 -7.39086 -7.37397 -7.33785 -7.30143 -7.26502 -7.22863 -7.19117 -7.1533 -7.11481 -7.07617 -7.03694 -6.99716 -6.95704 -6.91693 -6.87596 -6.83404 -6.79211 -6.74977 -6.70746 -6.66427 -6.62027 -6.57627 -6.53179 -6.48682 -6.44143 -6.39602 -6.35004 -6.3033 -6.25594 -6.2086 -6.16128 -6.11392 -6.11133 -6.10871 -6.10608 -6.10346 -6.10085 -6.05447 -6.0081 -5.96176 -5.91544 -5.86857 -5.8183 -5.76766 -5.71704 -5.66618 -5.61494 -5.56308 -5.51123 -5.45906 -5.40654 -5.35399 -5.30072 -5.24748 -5.19402 -5.14045 -5.08684 -5.03239 -4.97795 -4.92353 -4.86913 -4.8147 -4.78552 -4.75645 -4.72737 -4.69831 -4.67024 -4.64399 -4.61775 -4.59151 -4.56528 -4.53909 -4.48338 -4.4278 -4.37223 -4.31677 -4.26158 -4.2055 -4.1495 -4.09383 -4.03876 -3.98367 -3.9276 -3.87155 -3.81631 -3.7616 -3.70692 -3.65119 -3.59633 -3.54173 -3.48716 -3.43291 -3.41129 -3.39014 -3.36899 -3.34785 -3.32703 -3.29416 -3.26131 -3.22845 -3.19561 -3.16336 -3.10971 -3.05672 -3.00375 -2.95133 -2.89969 -2.84712 -2.79457 -2.74325 -2.69317 -2.64308 -2.59203 -2.54127 -2.49186 -2.44296 -2.39463 -2.34545 -2.29789 -2.25032 -2.20275 -2.15528 -2.15255 -2.14992 -2.14729 -2.14465 -2.14202 -2.09853 -2.05503 -2.01153 -1.96802 -1.92577 -1.88046 -1.83613 -1.79209 -1.74909 -1.70661 -1.66346 -1.6203 -1.57859 -1.53836 -1.49813 -1.45724 -1.41688 -1.37752 -1.33847 -1.30054 -1.26225 -1.2252 -1.18811 -1.151 -1.11393 -1.11327 -1.11263 -1.11199 -1.11135 -1.11071 -1.07603 -1.04133 -1.0066 -0.971853 -0.938096 -0.903564 -0.870422 -0.837363 -0.804897 -0.773067 -0.740801 -0.708506 -0.677839 -0.648232 -0.618625 -0.588596 -0.558538 -0.529451 -0.501924 -0.474494 -0.446659 -0.419379 -0.392498 -0.365671 -0.340355 -0.314848 -0.290038 -0.265198 -0.240328 -0.215838 -0.208567 -0.201444 -0.194319 -0.187191 -0.179728 -0.163831 -0.147924 -0.132006 -0.116078 -0.100378 -0.0784506 -0.0571632 -0.0358551 -0.0145265 0.00632903 0.0271572 0.0468041 0.0663106 0.0856653 0.104747 0.123853 0.142571 0.160393 0.177932 0.195412 0.212913 0.230429 0.246889 0.262898 0.278909 0.294935 0.310974 0.326508 0.341192 0.355877 0.370573 0.385277 0.399905 0.413494 0.427007 0.440524 0.454049 0.467582 0.480526 0.493026 0.505525 0.518084 0.530682 0.543042 0.554699 0.566348 0.578156 0.58999 0.601827 0.61284 0.623848 0.635096 0.646345 0.657596 0.668316 0.678931 0.689785 0.70064 0.711494 0.722043 0.732493 0.743149 0.753805 0.764459 0.774971 0.785485 0.796143 0.8068 0.817456 0.828077 0.833288 0.838553 0.843817 0.849082 0.854442 0.860018 0.865594 0.87117 0.876746 0.882379 0.893657 0.904927 0.916196 0.927466 0.938924 0.950819 0.962721 0.974624 0.986529 0.998778 1.01147 1.02422 1.03697 1.04973 1.06302 1.07667 1.09049 1.10431 1.11813 1.13272 1.14749 1.16259 1.17769 1.19282 1.20894 1.22506 1.24159 1.25818 1.27506 1.29276 1.31047 1.32854 1.34684 1.36575 1.38523 1.40475 1.42447 1.44468 1.46589 1.48737 1.50888 1.53041 1.55284 1.57647 1.60014 1.62384 1.64756 1.67241 1.6984 1.72443 1.75051 1.7766 1.80401 1.83254 1.8611 1.88971 1.91878 1.94893 1.97966 2.01091 2.0422 2.07472 2.10762 2.14055 2.17453 2.2091 2.24486 2.28064 2.31645 2.35256 2.36266 2.37302 2.38339 2.39375 2.40359 2.43175 2.45993 2.48811 2.51631 2.54525 2.58587 2.62719 2.66852 2.70993 2.7531 2.79622 2.84012 2.88452 2.93018 2.97648 3.0227 3.06894 3.11673 3.16608 3.21553 3.26488 3.31454 3.36575 3.41764 3.47025 3.52271 3.57697 3.63131 3.68567 3.7405 3.75109 3.762 3.7729 3.78381 3.79442 3.84051 3.88661 3.93273 3.97885 4.02654 4.08509 4.14466 4.20448 4.26567 4.32761 4.38911 4.45064 4.51368 4.57828 4.64307 4.70742 4.77316 4.83934 4.90555 4.97222 4.97989 4.98773 4.9956 5.00346 5.01123 5.07161 5.13201 5.19242 5.25306 5.31507 5.3848 5.45458 5.52552 5.59762 5.66997 5.74204 5.81474 5.88817 5.96161 6.03571 6.04977 6.06399 6.07828 6.09257 6.1066 6.16735 6.22811 6.28887 6.34993 6.41172 6.48784 6.56397 6.64081 6.71833 6.79612 6.85806 6.92031 6.98278 7.04526 7.10385 7.12054 7.13722 7.15391 7.17065 7.18747 7.26651 7.34577 7.42504 7.50458 7.58444 7.66442 7.74443 7.8245 7.90458 7.98498 7.99184 7.99869 8.00554 8.01238 8.01919 8.09289 8.1666 8.24031 8.31388 8.38753 8.46832 8.54908 8.62933 8.7096 8.79002 8.80524 8.8204 8.83547 8.85053 8.8655 8.9307 8.99591 9.06111 9.12584 9.19041 9.27041 9.35039 9.4292 9.50802 9.5867 9.60052 9.61426 9.62782 9.64137 9.65491 9.71964 9.78437 9.8491 9.91293 9.97635 10.0538 10.131 10.2067 10.2824 10.3578 10.3667 10.3755 10.384 10.3926 10.4012 10.4671 10.533 10.5989 10.6632 10.7266 10.7989 10.8712 10.9433 11.0153 11.087 11.0951 11.1027 11.1094 11.1162 11.1231 11.1836 11.2441 11.3045 11.3588 11.4089 11.4655 11.5221 11.5974 11.6741 11.7561 11.7755 11.794 11.8076 11.8212 11.8353 11.8917 11.948 12.0042 12.0463 12.0846 12.1358 12.1875 12.2431 12.2987 12.3541 12.3576 12.3611 12.3643 12.3676 12.3709 12.4237 12.4765 12.5292 12.5791 12.6275 12.6792 12.7297 12.7772 12.8247 12.8712 12.8747 12.8782 12.8814 12.8847 12.888 12.9288 12.9695 13.0101 13.0485 13.0851 13.1238 13.1623 13.1966 13.229 13.2601 13.2756 13.2895 13.3023 13.3151 13.3304 13.3432 13.356 13.3688 13.3809 13.3915 13.4124 13.4308 13.4483 13.4616 13.4738 13.4834 13.4929 13.4969 13.4982 13.4984 13.4959 13.4881 13.4799 13.4715 13.4598 13.4597 13.4597 13.4597 13.4596 13.4596 13.4401 13.4204 13.4005 13.3803 13.3546 13.3242 13.291 13.2559 13.2159 13.1741 13.1279 13.0816 13.0292 12.9709 12.9124 12.8494 12.7852 12.7145 12.6404 12.5643 12.4833 12.3964 12.3075 12.2185 12.1243 12.022 11.9139 11.8058 11.6977 11.5877 11.5234 11.4571 11.3907 11.3244 11.2405 11.1825 11.1246 11.0666 11.0086 10.949 10.8024 10.6543 10.5061 10.3579 10.2048 10.039 9.86769 9.69628 9.5248 9.34446 9.15607 8.96225 8.76838 8.5737 8.37307 8.16544 7.94496 7.72044 7.48981 7.2472 6.99618 6.75032 6.50865 6.27154 6.03875 5.79782 5.5301 5.21985 4.8622 4.48134 4.08698 3.72636 3.46877 3.3131 3.18759 3.05725 2.89281 2.28003 1.13926 0