/*--------------------------------*- C++ -*----------------------------------*\
| =========                 |                                                 |
| \\      /  F ield         | OpenFOAM: The Open Source CFD Toolbox           |
|  \\    /   O peration     | Version:  2.2.x                                 |
|   \\  /    A nd           | Web:      www.OpenFOAM.org                      |
|    \\/     M anipulation  |                                                 |
\*---------------------------------------------------------------------------*/
FoamFile
{
    version     2.0;
    format      ascii;
    class       volScalarField;
    location    "350";
    object      epsilon;
}
// * * * * * * * * * * * * * * * * * * * * * * * * * * * * * * * * * * * * * //

dimensions      [0 2 -3 0 0 0 0];

internalField   nonuniform List<scalar> 
12225
(
1739.11
3020.52
4030.08
4714.55
5131.98
5357.79
5455.64
5472.17
5439.19
5377.51
5300.37
5216.08
5129.75
5044.46
4962
4883.31
4807.7
4741.92
187.431
345.308
471.689
572.289
644.871
692.969
722.783
740.058
749.215
753.39
754.702
754.53
753.744
752.886
752.319
752.557
755.818
762.79
41.8451
72.5085
98.5888
120.687
138.676
152.651
163.114
170.703
176.042
179.684
182.087
183.615
184.548
185.095
185.421
185.678
186.041
186.324
20.3598
27.9829
35.4709
42.3243
48.3624
53.5206
57.8279
61.3614
64.2169
66.4935
68.2859
69.6801
70.751
71.5627
72.1696
72.6184
72.9427
73.1191
16.0562
18.2137
20.6756
23.1512
25.499
27.6457
29.5628
31.2471
32.7089
33.965
35.0356
35.9416
36.703
37.3387
37.8658
38.2989
38.6488
38.9123
15.0131
15.5456
16.313
17.1965
18.1159
19.0197
19.8776
20.6734
21.4001
22.0559
22.6423
23.1629
23.6223
24.0253
24.377
24.6819
24.9436
25.1607
14.7583
14.7814
14.9213
15.1496
15.4363
15.7555
16.0874
16.4182
16.7387
17.043
17.3276
17.591
17.8324
18.0521
18.2506
18.4288
18.5874
18.7249
14.7063
14.5999
14.5497
14.5524
14.5991
14.6793
14.7825
14.9001
15.0253
15.1529
15.2792
15.4014
15.5179
15.6273
15.7292
15.8229
15.9083
15.9835
14.6923
14.5448
14.4247
14.3339
14.2712
14.2336
14.2168
14.2167
14.2292
14.2509
14.2788
14.3108
14.3449
14.3797
14.4142
14.4475
14.479
14.5072
14.6883
14.5275
14.3816
14.2517
14.1383
14.041
13.9587
13.8899
13.8329
13.786
13.7476
13.7161
13.6904
13.6693
13.6517
13.6369
13.6242
13.6128
14.6872
14.5228
14.3691
14.2261
14.0939
13.9722
13.8609
13.7593
13.667
13.5831
13.5069
13.4378
13.3749
13.3176
13.2652
13.2172
13.173
13.1324
14.6868
14.5216
14.3659
14.2194
14.0816
13.9522
13.8308
13.717
13.6105
13.5109
13.4178
13.3308
13.2494
13.1733
13.1021
13.0354
12.9729
12.9148
14.6866
14.5211
14.365
14.2176
14.0785
13.9471
13.823
13.7057
13.5949
13.4902
13.3913
13.2978
13.2095
13.1259
13.0469
12.9722
12.9015
12.8352
14.6865
14.5209
14.3646
14.217
14.0775
13.9456
13.8209
13.7028
13.5909
13.485
13.3845
13.2892
13.1989
13.1131
13.0317
12.9543
12.8809
12.8118
14.6864
14.5207
14.3643
14.2166
14.077
13.945
13.82
13.7017
13.5896
13.4833
13.3824
13.2867
13.1958
13.1095
13.0274
12.9494
12.8753
12.8054
14.6863
14.5206
14.3641
14.2163
14.0766
13.9445
13.8194
13.701
13.5888
13.4823
13.3813
13.2855
13.1944
13.1079
13.0257
12.9475
12.8731
12.8031
14.6863
14.5205
14.364
14.2161
14.0764
13.9442
13.8191
13.7005
13.5882
13.4817
13.3806
13.2847
13.1935
13.1069
13.0246
12.9463
12.8718
12.8017
14.6863
14.5205
14.364
14.2161
14.0763
13.944
13.8189
13.7003
13.5879
13.4814
13.3803
13.2842
13.1931
13.1064
13.024
12.9456
12.8711
12.801
14.6863
14.5205
14.364
14.2161
14.0763
13.9441
13.8189
13.7003
13.5879
13.4814
13.3802
13.2842
13.193
13.1064
13.0239
12.9456
12.8711
12.8009
14.6863
14.5206
14.3641
14.2162
14.0765
13.9443
13.8191
13.7006
13.5883
13.4818
13.3807
13.2848
13.1938
13.1072
13.025
12.9468
12.8725
12.8026
14.6864
14.5207
14.3642
14.2165
14.0769
13.9449
13.82
13.7019
13.5901
13.4842
13.3839
13.2888
13.1987
13.1133
13.0324
12.9555
12.8827
12.8143
14.6865
14.5209
14.3648
14.2177
14.0791
13.9486
13.8258
13.7104
13.6018
13.4998
13.404
13.314
13.2294
13.1499
13.0752
13.0049
12.9388
12.8774
14.6868
14.5224
14.369
14.2265
14.095
13.9742
13.8636
13.7628
13.6711
13.5877
13.512
13.4432
13.3806
13.3236
13.2716
13.2241
13.1805
13.1412
14.6896
14.5346
14.3997
14.286
14.1933
14.12
14.0639
14.0227
13.994
13.9754
13.965
13.9611
13.9621
13.9669
13.9745
13.984
13.9948
14.0067
14.712
14.6198
14.5883
14.6114
14.6787
14.7792
14.9027
15.041
15.1875
15.3373
15.4866
15.6329
15.7742
15.9093
16.0375
16.1583
16.2716
16.3773
14.8713
15.1221
15.5436
16.0693
16.6495
17.2492
17.8453
18.4233
18.9743
19.4935
19.9781
20.4275
20.8419
21.2223
21.5702
21.8874
22.1757
22.4368
15.8759
17.7061
19.7887
21.8991
23.945
25.8796
27.6802
29.3382
30.8522
32.2252
33.4628
34.5725
35.563
36.4435
37.2233
37.9112
38.5156
39.0445
22.1652
31.1006
39.3166
46.8951
53.8939
60.284
66.0534
71.2089
75.7687
79.7622
83.2285
86.2127
88.763
90.9276
92.7524
94.2786
95.5394
96.5542
68.0191
114.901
154.785
191.793
226.042
256.872
283.974
307.322
327.076
343.527
357.037
367.998
376.791
383.769
389.243
393.47
396.635
398.746
723.143
1065.45
1375.75
1655.2
1913.03
2142.3
2339.7
2504.88
2639.51
2746.44
2829.07
2890.89
2935.25
2965.19
2983.38
2992.12
2993.38
2988.64
2.86054
2.91525
4.14539
5.2026
6.44963
7.80393
9.42513
11.5317
13.9523
16.7311
19.8439
23.2648
26.978
30.9776
35.2691
39.8724
44.7691
49.9293
55.3419
60.9983
66.89
73.0087
79.3463
85.8947
92.6457
99.5913
106.724
114.035
121.517
129.163
136.965
144.916
153.009
161.238
169.594
178.073
186.667
195.37
204.175
213.078
222.072
231.151
240.311
249.547
258.852
268.222
277.652
287.135
296.667
306.24
315.851
325.491
335.155
344.836
354.527
364.22
373.908
383.582
393.234
402.856
412.437
421.967
431.438
440.839
450.16
459.391
468.523
477.547
486.454
495.236
503.886
512.396
520.763
528.983
537.056
544.981
552.761
560.403
567.911
575.296
582.57
589.745
596.839
603.872
610.864
617.838
624.82
631.837
638.915
646.083
653.371
660.807
668.419
676.235
684.281
692.581
701.158
710.033
719.223
728.744
738.608
748.827
759.409
770.362
781.693
793.411
805.53
818.071
831.069
844.583
858.71
873.604
889.524
905.908
922.556
939.427
956.476
973.649
990.888
1008.12
1025.27
1042.25
1058.94
1075.22
1090.95
1105.96
1120.05
1132.98
1144.49
1154.29
1162.01
1167.28
1169.68
1168.78
1164.1
1155.26
1141.85
1123.52
1100.08
1071.68
1038.43
1001.33
961.713
925.54
897.32
867.809
836.596
804.16
771.069
737.877
705.044
672.952
641.907
612.123
583.751
556.882
531.554
507.774
485.515
464.731
445.359
427.328
410.558
394.963
380.459
366.971
354.418
342.731
331.837
321.66
312.127
303.17
294.713
286.667
278.926
271.352
264.056
256.753
248.929
238.663
9.51651
5.3289
5.15104
5.75333
6.67704
7.84903
9.2614
10.9154
12.7811
14.8293
17.0322
19.3684
21.8229
24.3856
27.0495
29.8084
32.6543
35.5797
38.5791
41.6486
44.785
47.9854
51.2475
54.5692
57.9484
61.3834
64.8724
68.4138
72.0058
75.6469
79.3353
83.0696
86.8479
90.6686
94.53
98.4304
102.368
106.341
110.348
114.387
118.456
122.553
126.677
130.826
134.998
139.19
143.401
147.63
151.873
156.128
160.394
164.668
168.948
173.231
177.515
181.796
186.073
190.342
194.599
198.843
203.07
207.277
211.46
215.616
219.742
223.835
227.892
231.909
235.885
239.816
243.7
247.536
251.321
255.055
258.738
262.368
265.947
269.475
272.954
276.386
279.776
283.125
286.439
289.723
292.982
296.221
299.448
302.669
305.891
309.122
312.368
315.637
318.937
322.274
325.656
329.09
332.582
336.139
339.767
343.472
347.262
351.143
355.121
359.207
363.409
367.738
372.209
376.838
381.649
386.67
391.942
397.513
403.453
409.728
416.159
422.725
429.419
436.227
443.135
450.125
457.172
464.249
471.317
478.332
485.24
491.975
498.457
504.592
510.27
515.363
519.722
523.182
525.564
526.678
526.318
524.284
520.387
514.45
506.338
495.994
483.408
468.481
452.58
436.401
421.282
405.756
389.735
373.4
356.97
340.653
324.632
309.05
294.02
279.625
265.922
252.942
240.697
229.184
218.39
208.292
198.861
190.064
181.865
174.229
167.12
160.501
154.338
148.599
143.251
138.266
133.613
129.267
125.203
121.397
117.827
114.483
111.497
109
107.396
108.41
17.905
8.93619
7.93863
8.15832
8.87903
9.93109
11.2539
12.8109
14.5658
16.4821
18.5281
20.6786
22.9155
25.2259
27.6006
30.0327
32.5168
35.0486
37.6255
40.2454
42.907
45.6094
48.3519
51.134
53.9553
56.8154
59.7138
62.6501
65.6238
68.6342
71.6806
74.7624
77.8786
81.0283
84.2105
87.4242
90.6682
93.9416
97.243
100.571
103.926
107.304
110.706
114.13
117.575
121.04
124.522
128.022
131.538
135.068
138.61
142.165
145.73
149.304
152.885
156.471
160.062
163.655
167.249
170.841
174.431
178.015
181.591
185.159
188.714
192.256
195.782
199.29
202.777
206.242
209.681
213.093
216.476
219.829
223.149
226.435
229.686
232.9
236.078
239.218
242.321
245.386
248.414
251.407
254.364
257.288
260.18
263.043
265.878
268.689
271.477
274.248
277.002
279.745
282.48
285.211
287.943
290.68
293.429
296.195
298.984
301.805
304.666
307.577
310.547
313.59
316.72
319.951
323.301
326.789
330.439
334.27
338.303
342.468
346.735
351.1
355.56
360.113
364.753
369.472
374.258
379.095
383.962
388.83
393.662
398.415
403.031
407.443
411.569
415.313
418.559
421.177
423.021
423.93
423.732
422.249
419.306
414.745
408.414
400.17
390.02
378.437
366.062
353.18
340.136
326.723
313.002
299.131
285.283
271.616
258.263
245.332
232.905
221.037
209.766
199.11
189.074
179.65
170.822
162.568
154.863
147.678
140.983
134.747
128.94
123.533
118.498
113.808
109.438
105.365
101.566
98.0214
94.714
91.629
88.7558
86.0967
83.7187
81.7349
80.4155
80.5222
26.5293
12.7618
10.7643
10.6251
11.1667
12.1063
13.3405
14.8136
16.4835
18.3134
20.2714
22.3318
24.4747
26.6855
28.954
31.2728
33.6368
36.0428
38.4885
40.9728
43.4949
46.0547
48.652
51.2871
53.9599
56.6706
59.4192
62.2057
65.0298
67.8912
70.7896
73.7244
76.6951
79.7008
82.7408
85.8143
88.9204
92.058
95.2263
98.4242
101.651
104.905
108.186
111.493
114.824
118.18
121.558
124.958
128.38
131.822
135.284
138.764
142.262
145.778
149.309
152.855
156.415
159.988
163.572
167.167
170.771
174.383
178
181.621
185.244
188.868
192.489
196.106
199.716
203.317
206.905
210.478
214.033
217.567
221.077
224.56
228.013
231.433
234.818
238.163
241.467
244.727
247.941
251.106
254.222
257.285
260.296
263.253
266.155
269.003
271.796
274.534
277.22
279.855
282.44
284.978
287.473
289.929
292.35
294.743
297.113
299.468
301.817
304.169
306.535
308.926
311.356
313.837
316.386
319.018
321.748
324.59
327.526
330.528
333.591
336.716
339.905
343.159
346.479
349.861
353.301
356.792
360.321
363.87
367.417
370.929
374.366
377.677
380.8
383.655
386.148
388.164
389.57
390.213
389.923
388.516
385.804
381.606
375.71
368.143
359.145
348.95
337.89
326.162
313.935
301.275
288.321
275.242
262.204
249.358
236.826
224.709
213.081
201.991
191.472
181.539
172.193
163.426
155.221
147.555
140.403
133.738
127.529
121.748
116.367
111.357
106.692
102.346
98.2979
94.5242
91.0054
87.7238
84.6639
81.8136
79.1654
76.7231
74.527
72.659
71.2814
70.7253
36.4175
16.5027
13.4309
12.9175
13.2746
14.0973
15.2391
16.6275
18.2151
19.9649
21.8464
23.8346
25.9097
28.0568
30.265
32.5265
34.8363
37.1907
39.5879
42.0267
44.5066
47.0276
49.5899
52.1937
54.8394
57.5272
60.2574
63.03
65.8449
68.702
71.6009
74.5412
77.5224
80.5438
83.6046
86.7042
89.8415
93.0159
96.2263
99.4718
102.752
106.065
109.411
112.789
116.198
119.637
123.106
126.605
130.132
133.687
137.27
140.88
144.518
148.181
151.871
155.585
159.325
163.088
166.875
170.684
174.515
178.366
182.235
186.121
190.023
193.937
197.863
201.796
205.735
209.675
213.614
217.548
221.472
225.383
229.276
233.146
236.988
240.798
244.57
248.3
251.981
255.61
259.181
262.69
266.131
269.501
272.796
276.011
279.145
282.194
285.156
288.03
290.814
293.509
296.116
298.634
301.068
303.419
305.692
307.892
310.025
312.097
314.118
316.095
318.039
319.96
321.871
323.784
325.713
327.67
329.67
331.721
333.793
335.879
337.979
340.096
342.237
344.403
346.599
348.825
351.083
353.369
355.681
358.009
360.343
362.663
364.944
367.154
369.249
371.17
372.844
374.174
375.041
375.302
374.79
373.307
370.644
366.581
361.077
354.207
346.063
336.789
326.571
315.56
303.897
291.72
279.202
266.524
253.86
241.362
229.157
217.347
206.007
195.191
184.93
175.242
166.129
157.581
149.584
142.115
135.149
128.657
122.613
116.986
111.748
106.873
102.333
98.1053
94.1661
90.4944
87.071
83.879
80.9036
78.1338
75.5632
73.195
71.055
69.2015
67.7311
66.7937
46.2702
20.0274
15.8384
14.9362
15.1031
15.8066
16.8563
18.1622
19.6709
21.3446
23.1539
25.0753
27.0898
29.1831
31.3443
33.5656
35.8416
38.1687
40.5449
42.969
45.4405
47.9594
50.526
53.1405
55.8034
58.515
61.2757
64.0854
66.9443
69.8522
72.8088
75.8137
78.8664
81.9663
85.1127
88.3049
91.5419
94.823
98.1474
101.514
104.923
108.372
111.862
115.391
118.959
122.566
126.211
129.893
133.614
137.372
141.167
144.999
148.868
152.775
156.718
160.699
164.715
168.769
172.858
176.983
181.142
185.334
189.559
193.815
198.1
202.411
206.746
211.103
215.477
219.865
224.262
228.664
233.066
237.462
241.845
246.21
250.55
254.858
259.126
263.347
267.514
271.619
275.654
279.612
283.486
287.268
290.953
294.534
298.006
301.363
304.602
307.718
310.709
313.573
316.31
318.919
321.401
323.759
325.995
328.115
330.122
332.023
333.826
335.539
337.17
338.729
340.228
341.677
343.088
344.475
345.849
347.206
348.523
349.796
351.026
352.219
353.38
354.511
355.618
356.704
357.772
358.823
359.861
360.884
361.893
362.881
363.838
364.752
365.604
366.359
366.971
367.369
367.462
367.123
366.198
364.476
361.754
357.94
352.964
346.804
339.473
331.034
321.588
311.25
300.148
288.443
276.32
263.968
251.571
239.289
227.257
215.586
204.358
193.632
183.446
173.818
164.756
156.253
148.293
140.858
133.922
127.459
121.44
115.836
110.619
105.763
101.242
97.0297
93.1051
89.4468
86.0359
82.8558
79.892
77.1338
74.575
72.2172
70.0777
68.1965
66.6303
65.4476
55.3168
23.1587
17.9062
16.6267
16.6063
17.1924
18.1526
19.3798
20.8141
22.4162
24.1571
26.0146
27.9711
30.0129
32.1299
34.3143
36.561
38.8664
41.2283
43.6456
46.1177
48.6446
51.2267
53.8643
56.5579
59.3078
62.1145
64.9781
67.8987
70.8762
73.9105
77.0012
80.1479
83.3499
86.6067
89.9175
93.2816
96.6983
100.167
103.686
107.256
110.876
114.544
118.262
122.028
125.841
129.703
133.613
137.571
141.576
145.63
149.732
153.884
158.084
162.333
166.633
170.982
175.381
179.83
184.328
188.876
193.472
198.115
202.804
207.536
212.311
217.124
221.972
226.852
231.759
236.688
241.633
246.587
251.544
256.496
261.435
266.352
271.239
276.085
280.881
285.617
290.282
294.867
299.362
303.755
308.039
312.203
316.239
320.139
323.895
327.502
330.953
334.244
337.372
340.334
343.129
345.757
348.219
350.517
352.655
354.636
356.467
358.154
359.703
361.123
362.423
363.611
364.697
365.691
366.605
367.45
368.207
368.859
369.4
369.834
370.162
370.388
370.514
370.542
370.476
370.318
370.072
369.741
369.333
368.856
368.314
367.713
367.059
366.362
365.618
364.814
363.92
362.88
361.609
359.965
357.803
355.01
351.448
346.996
341.555
335.058
327.489
318.878
309.296
298.857
287.715
276.057
264.08
251.973
239.909
228.035
216.471
205.309
194.618
184.443
174.81
165.729
157.198
149.206
141.733
134.759
128.255
122.196
116.553
111.299
106.405
101.848
97.6012
93.6435
89.9537
86.5127
83.3042
80.314
77.5313
74.9497
72.5692
70.4004
68.47
66.8094
65.4486
63.1252
25.8094
19.6032
17.9746
17.7758
18.2481
19.1214
20.2729
21.6363
23.17
24.8451
26.6402
28.5389
30.5286
32.5996
34.745
36.9596
39.2403
41.5849
43.9924
46.4622
48.9945
51.5895
54.2479
56.9701
59.7567
62.6082
65.5249
68.5071
71.5547
74.6677
77.846
81.0892
84.3968
87.7684
91.2033
94.701
98.2608
101.882
105.564
109.307
113.109
116.971
120.892
124.872
128.912
133.01
137.168
141.385
145.662
150
154.4
158.861
163.385
167.972
172.623
177.338
182.118
186.964
191.875
196.851
201.892
206.997
212.164
217.391
222.676
228.017
233.409
238.848
244.328
249.845
255.39
260.957
266.537
272.121
277.699
283.261
288.795
294.288
299.731
305.108
310.409
315.619
320.726
325.718
330.581
335.305
339.877
344.288
348.527
352.586
356.458
360.137
363.616
366.893
369.964
372.83
375.489
377.944
380.197
382.251
384.112
385.785
387.276
388.592
389.739
390.726
391.56
392.249
392.801
393.225
393.488
393.574
393.478
393.199
392.736
392.089
391.257
390.237
389.028
387.631
386.045
384.273
382.325
380.212
377.949
375.553
373.047
370.465
367.841
365.205
362.57
359.944
357.286
354.58
351.743
348.66
345.18
341.136
336.359
330.703
324.061
316.389
307.7
298.072
287.64
276.582
265.094
253.373
241.602
229.94
218.522
207.452
196.809
186.648
177.004
167.893
159.318
151.271
143.739
136.701
130.132
124.006
118.297
112.977
108.02
103.401
99.0955
95.0807
91.3361
87.8431
84.5851
81.5481
78.7212
76.0976
73.6757
71.4614
69.4696
67.7171
66.2145
69.4642
27.9384
20.9245
18.9875
18.624
18.9874
19.7759
20.8534
22.1474
23.614
25.2241
26.9567
28.7962
30.7308
32.7519
34.8528
37.0292
39.278
41.5973
43.9863
46.4447
48.9727
51.5708
54.2398
56.9803
59.7932
62.6791
65.6386
68.6721
71.7799
74.9623
78.2192
81.5505
84.9561
88.4356
91.9887
95.6149
99.314
103.085
106.929
110.844
114.83
118.888
123.016
127.217
131.488
135.832
140.247
144.736
149.299
153.936
158.649
163.438
168.305
173.251
178.277
183.383
188.571
193.841
199.194
204.63
210.148
215.749
221.429
227.189
233.025
238.934
244.911
250.954
257.054
263.206
269.402
275.633
281.889
288.16
294.434
300.698
306.938
313.142
319.292
325.376
331.377
337.279
343.068
348.726
354.24
359.595
364.777
369.772
374.569
379.157
383.527
387.671
391.581
395.254
398.685
401.872
404.815
407.515
409.974
412.194
414.181
415.938
417.472
418.788
419.891
420.788
421.483
421.983
422.291
422.409
422.29
421.92
421.29
420.397
419.234
417.797
416.077
414.067
411.758
409.144
406.219
402.979
399.429
395.58
391.452
387.069
382.465
377.69
372.819
367.932
363.068
358.379
353.913
349.714
345.766
341.992
338.255
334.364
330.094
325.216
319.53
312.895
305.245
296.6
287.057
276.771
265.932
254.738
243.382
232.037
220.851
209.943
199.405
189.304
179.682
170.566
161.965
153.877
146.293
139.193
132.558
126.363
120.583
115.192
110.164
105.475
101.101
97.0195
93.2108
89.656
86.3388
83.2453
80.3645
77.6889
75.2154
72.9462
70.8878
69.0468
67.4247
74.2258
29.5338
21.8802
19.6851
19.1751
19.4363
20.1422
21.1462
22.3707
23.7698
25.3137
26.9819
28.7591
30.6346
32.6001
34.6499
36.7799
38.9875
41.2713
43.6305
46.0653
48.5762
51.1639
53.8294
56.5738
59.3982
62.3035
65.2906
68.3605
71.5137
74.7507
78.072
81.4778
84.9683
88.5435
92.2034
95.948
99.7771
103.691
107.689
111.771
115.937
120.189
124.525
128.946
133.453
138.046
142.727
147.495
152.353
157.301
162.341
167.474
172.701
178.025
183.446
188.965
194.585
200.305
206.127
212.051
218.078
224.205
230.434
236.76
243.183
249.698
256.301
262.987
269.749
276.581
283.472
290.413
297.393
304.4
311.42
318.437
325.437
332.402
339.316
346.161
352.918
359.569
366.096
372.48
378.703
384.749
390.6
396.24
401.657
406.837
411.768
416.442
420.849
424.984
428.842
432.42
435.718
438.736
441.476
443.94
446.132
448.058
449.721
451.127
452.28
453.184
453.842
454.257
454.429
454.345
453.946
453.219
452.153
450.739
448.966
446.823
444.294
441.364
438.016
434.234
430.003
425.31
420.146
414.513
408.441
401.955
395.091
387.886
380.474
373.016
365.617
358.471
351.723
345.502
339.884
334.87
330.376
326.228
322.171
317.904
313.128
307.585
301.105
293.618
285.159
275.844
265.842
255.35
244.567
233.678
222.845
212.204
201.86
191.893
182.358
173.29
164.706
156.612
149.003
141.866
135.183
128.933
123.093
117.638
112.545
107.79
103.35
99.2032
95.3302
91.7127
88.3347
85.1823
82.2444
79.5131
76.9839
74.6558
72.5297
70.6048
68.8785
77.3808
30.6036
22.4913
20.0948
19.4603
19.6279
20.2542
21.1849
22.3389
23.6689
25.1445
26.7451
28.4564
30.2677
32.1717
34.1631
36.2383
38.3952
40.6327
42.9506
45.3492
47.8295
50.3927
53.0401
55.7731
58.5933
61.5022
64.5012
67.5915
70.7743
74.0507
77.4215
80.8876
84.4495
88.1078
91.863
95.7155
99.6656
103.714
107.86
112.105
116.45
120.894
125.438
130.084
134.831
139.681
144.635
149.695
154.861
160.136
165.52
171.016
176.625
182.349
188.19
194.149
200.229
206.429
212.752
219.197
225.765
232.456
239.268
246.199
253.247
260.408
267.676
275.047
282.513
290.065
297.694
305.389
313.136
320.923
328.732
336.548
344.351
352.122
359.842
367.491
375.047
382.49
389.798
396.95
403.925
410.703
417.266
423.595
429.673
435.487
441.022
446.268
451.216
455.857
460.188
464.204
467.904
471.288
474.359
477.118
479.571
481.721
483.572
485.13
486.397
487.374
488.064
488.469
488.58
488.362
487.751
486.734
485.297
483.425
481.103
478.311
475.027
471.226
466.882
461.97
456.463
450.338
443.573
436.13
428.084
419.452
410.275
400.616
390.626
380.469
370.327
360.427
350.994
342.248
334.374
327.491
321.618
316.653
312.361
308.402
304.381
299.912
294.688
288.518
281.34
273.207
264.256
254.667
244.642
234.376
224.046
213.802
203.766
194.032
184.669
175.722
167.219
159.173
151.585
144.449
137.751
131.473
125.596
120.097
114.955
110.146
105.651
101.448
97.5177
93.8432
90.4086
87.2005
84.2077
81.4218
78.8372
76.4506
74.2588
72.256
70.438
78.9742
31.1723
22.7856
20.2483
19.5144
19.5994
20.1503
21.0088
22.0917
23.351
24.7559
26.2863
27.9279
29.6709
31.5081
33.4349
35.4482
37.5463
39.7286
41.9953
44.3473
46.7858
49.3126
51.9295
54.6386
57.4419
60.3416
63.3395
66.4378
69.6381
72.9422
76.3516
79.8678
83.4922
87.2258
91.0699
95.0255
99.0934
103.275
107.57
111.981
116.508
121.152
125.914
130.795
135.797
140.921
146.168
151.54
157.038
162.665
168.422
174.311
180.335
186.494
192.792
199.229
205.808
212.529
219.394
226.404
233.558
240.857
248.298
255.879
263.598
271.45
279.429
287.53
295.743
304.06
312.468
320.957
329.511
338.115
346.751
355.401
364.04
372.649
381.204
389.684
398.065
406.323
414.434
422.374
430.12
437.65
444.941
451.974
458.729
465.191
471.345
477.178
482.679
487.841
492.657
497.125
501.242
505.008
508.425
511.497
514.227
516.619
518.678
520.408
521.809
522.882
523.628
524.046
524.127
523.777
522.963
521.665
519.863
517.534
514.66
511.214
507.165
502.482
497.127
491.066
484.266
476.695
468.33
459.151
449.192
438.479
427.064
415.034
402.528
389.716
376.805
364.046
351.713
340.1
329.498
320.161
312.257
305.82
300.708
296.603
293.048
289.531
285.582
280.848
275.135
268.402
260.725
252.259
243.199
233.745
224.087
214.393
204.8
195.418
186.33
177.595
169.251
161.321
153.814
146.73
140.06
133.793
127.911
122.396
117.229
112.389
107.856
103.611
99.6371
95.9167
92.435
89.179
86.1376
83.3023
80.6664
78.225
75.9725
73.899
72.0004
79.1053
31.2766
22.7957
20.1796
19.3739
19.3896
19.8719
20.6611
21.6742
22.8627
24.1965
25.6555
27.226
28.8986
30.6666
32.5259
34.4737
36.5089
38.6313
40.8417
43.1414
45.5323
48.0166
50.5969
53.276
56.0564
58.9412
61.9331
65.0349
68.2491
71.5783
75.025
78.5915
82.2798
86.0921
90.0303
94.0962
98.2915
102.618
107.077
111.67
116.399
121.266
126.271
131.417
136.705
142.137
147.714
153.439
159.313
165.338
171.517
177.85
184.341
190.991
197.802
204.775
211.913
219.216
226.685
234.321
242.123
250.09
258.221
266.512
274.96
283.559
292.303
301.185
310.194
319.32
328.549
337.869
347.263
356.714
366.205
375.714
385.207
394.665
404.065
413.38
422.585
431.655
440.562
449.28
457.783
466.048
474.049
481.766
489.178
496.266
503.014
509.409
515.439
521.095
526.371
531.264
535.771
539.892
543.63
546.986
549.965
552.572
554.809
556.678
558.181
559.316
560.081
560.472
560.459
559.922
558.84
557.193
554.955
552.1
548.602
544.428
539.54
533.899
527.463
520.191
512.044
502.991
493.012
482.098
470.266
457.547
444.001
429.723
414.846
399.535
383.999
368.487
353.29
338.738
325.195
313.027
302.564
294.025
287.445
282.617
279.097
276.282
273.531
270.296
266.203
261.076
254.902
247.79
239.915
231.478
222.68
213.703
204.702
195.805
187.111
178.691
170.597
162.862
155.506
148.535
141.947
135.737
129.892
124.397
119.235
114.39
109.844
105.579
101.579
97.8281
94.3129
91.0206
87.9407
85.0644
82.3846
79.8952
77.5893
75.4539
73.4856
77.9184
30.9615
22.5565
19.9238
19.0761
19.039
19.4626
20.1893
21.1372
22.2589
23.5249
24.9158
26.4185
28.024
29.726
31.5208
33.4062
35.3815
37.4472
39.6044
41.8553
44.2023
46.6485
49.197
51.8516
54.6157
57.4932
60.4877
63.6032
66.8431
70.2111
73.7107
77.3451
81.1177
85.0314
89.0893
93.2941
97.6484
102.155
106.816
111.634
116.611
121.749
127.051
132.518
138.153
143.959
149.935
156.084
162.408
168.91
175.591
182.452
189.496
196.724
204.137
211.737
219.524
227.5
235.663
244.014
252.551
261.272
270.175
279.254
288.506
297.923
307.497
317.218
327.076
337.057
347.146
357.327
367.582
377.891
388.233
398.582
408.912
419.197
429.411
439.526
449.515
459.349
469
478.44
487.643
496.581
505.229
513.563
521.563
529.207
536.48
543.366
549.853
555.932
561.597
566.842
571.665
576.068
580.051
583.616
586.768
589.508
591.841
593.766
595.28
596.383
597.07
597.325
597.083
596.23
594.749
592.615
589.802
586.279
582.012
576.963
571.089
564.346
556.688
548.075
538.466
527.834
516.165
503.457
489.731
475.023
459.405
442.976
425.869
408.247
390.31
372.297
354.486
337.206
320.836
305.803
292.551
281.483
272.863
266.7
262.679
260.188
258.446
256.691
254.325
250.986
246.536
241.01
234.547
227.341
219.599
211.517
203.269
195
186.825
178.833
171.089
163.639
156.511
149.721
143.277
137.178
131.416
125.982
120.864
116.047
111.515
107.255
103.251
99.4901
95.9586
92.6453
89.54
86.6342
83.9206
81.3924
79.0422
76.8552
74.8287
75.6071
30.2835
22.1077
19.5183
18.6607
18.5915
18.9715
19.6482
20.5422
21.6078
22.8167
24.1505
25.5972
27.1488
28.7982
30.5423
32.3798
34.3105
36.3357
38.4572
40.6778
43.0008
45.4302
47.9702
50.6253
53.4001
56.2997
59.3288
62.4924
65.7955
69.2429
72.8393
76.5893
80.4975
84.568
88.8052
93.2129
97.7949
102.555
107.496
112.621
117.934
123.437
129.133
135.024
141.112
147.4
153.89
160.582
167.48
174.583
181.894
189.413
197.141
205.079
213.227
221.584
230.15
238.925
247.906
257.091
266.478
276.062
285.837
295.799
305.939
316.249
326.718
337.333
348.082
358.949
369.915
380.963
392.072
403.218
414.379
425.527
436.637
447.68
458.629
469.455
480.129
490.623
500.907
510.954
520.734
530.22
539.388
548.211
556.668
564.739
572.405
579.651
586.465
592.836
598.758
604.225
609.236
613.79
617.887
621.53
624.72
627.46
629.748
631.583
632.96
633.875
634.325
634.275
633.587
632.216
630.135
627.315
623.722
619.323
614.077
607.941
600.871
592.818
583.739
573.591
562.342
549.969
536.466
521.843
506.13
489.381
471.677
453.13
433.879
414.094
393.972
373.743
353.667
334.048
315.241
297.66
281.784
268.126
257.158
249.165
244.089
241.449
240.412
240.02
239.419
238.01
235.483
231.763
226.935
221.173
214.685
207.679
200.348
192.853
185.329
177.883
170.594
163.522
156.706
150.173
143.938
138.008
132.382
127.057
122.023
117.27
112.786
108.56
104.578
100.83
97.3022
93.9858
90.8711
87.95
85.2153
82.6599
80.2761
78.0493
75.9767
72.5504
29.3688
21.5128
19.0124
18.1768
18.1015
18.4614
19.1105
19.9729
21.005
22.1801
23.4806
24.8954
26.4167
28.0397
29.7617
31.5821
33.5015
35.5219
37.6461
39.8779
42.2216
44.6822
47.2651
49.9762
52.8213
55.8069
58.9392
62.2247
65.6697
69.2806
73.0637
77.025
81.1707
85.5065
90.0378
94.77
99.708
104.856
110.22
115.802
121.606
127.635
133.894
140.383
147.105
154.062
161.254
168.684
176.351
184.256
192.397
200.775
209.388
218.235
227.312
236.619
246.15
255.903
265.873
276.054
286.44
297.024
307.798
318.751
329.873
341.152
352.573
364.122
375.782
387.534
399.359
411.232
423.133
435.036
446.915
458.746
470.501
482.152
493.671
505.031
516.203
527.159
537.871
548.313
558.457
568.276
577.745
586.84
595.538
603.818
611.664
619.059
625.99
632.447
638.422
643.91
648.908
653.414
657.428
660.95
663.98
666.517
668.556
670.092
671.117
671.626
671.596
670.954
669.572
667.425
664.485
660.716
656.082
650.541
644.051
636.566
628.036
618.417
607.665
595.744
582.628
568.303
552.777
536.074
518.24
499.346
479.494
458.812
437.456
415.608
393.474
371.283
349.286
327.761
307.022
287.432
269.427
253.523
240.296
230.269
223.715
220.437
219.71
220.458
221.572
222.173
221.725
220.006
217.017
212.899
207.853
202.098
195.841
189.265
182.523
175.74
169.012
162.413
155.994
149.795
143.839
138.14
132.707
127.539
122.634
117.986
113.586
109.426
105.496
101.785
98.2851
94.9862
91.8805
88.9606
86.2195
83.6505
81.246
78.9923
76.8865
69.0189
28.2646
20.8141
18.4524
17.6794
17.6358
18.0131
18.6725
19.5424
20.5818
21.7657
23.0784
24.5095
26.0528
27.7048
29.464
31.331
33.3076
35.397
37.6032
39.9314
42.3873
44.9776
47.709
50.5891
53.6256
56.8266
60.2001
63.7543
67.4975
71.4379
75.5835
79.9422
84.5216
89.3291
94.3718
99.656
105.188
110.973
117.016
123.321
129.893
136.733
143.845
151.23
158.889
166.823
175.03
183.51
192.26
201.278
210.559
220.1
229.895
239.939
250.225
260.746
271.494
282.46
293.634
305.006
316.565
328.298
340.192
352.232
364.403
376.688
389.068
401.524
414.04
426.592
439.155
451.705
464.217
476.668
489.034
501.291
513.413
525.377
537.156
548.727
560.062
571.138
581.93
592.416
602.573
612.376
621.8
630.824
639.426
647.586
655.287
662.514
669.252
675.491
681.223
686.44
691.139
695.316
698.967
702.091
704.685
706.741
708.252
709.206
709.592
709.394
708.57
706.973
704.572
701.33
697.213
692.18
686.189
679.195
671.15
662.006
651.717
640.238
627.532
613.569
598.336
581.832
564.078
545.119
525.022
503.881
481.819
458.988
435.566
411.753
387.77
363.854
340.256
317.238
295.076
274.077
254.596
237.073
222.056
210.176
201.991
197.691
196.842
198.407
201.079
203.682
205.404
205.827
204.844
202.539
199.1
194.749
189.711
184.186
178.349
172.341
166.276
160.242
154.307
148.518
142.91
137.507
132.323
127.365
122.636
118.135
113.858
109.799
105.951
102.307
98.8589
95.6003
92.5241
89.6237
86.8931
84.3259
81.9151
79.6484
77.5229
65.1443
26.97
20.0343
17.8897
17.2491
17.3062
17.7712
18.5143
19.4687
20.5967
21.8759
23.2925
24.8386
26.5099
28.3048
30.2241
32.2701
34.4467
36.7589
39.2131
41.8163
44.5764
47.5021
50.6026
53.8876
57.367
61.051
64.9502
69.0747
73.435
78.0411
82.9028
88.0299
93.4313
99.1156
105.091
111.363
117.94
124.826
132.025
139.54
147.373
155.525
163.996
172.786
181.89
191.305
201.026
211.047
221.359
231.955
242.825
253.957
265.339
276.96
288.804
300.857
313.104
325.528
338.113
350.841
363.693
376.651
389.693
402.798
415.951
429.126
442.295
455.437
468.55
481.597
494.549
507.38
520.073
532.61
544.972
557.143
569.106
580.842
592.332
603.558
614.501
625.139
635.455
645.43
655.058
664.314
673.173
681.619
689.634
697.196
704.29
710.899
717.01
722.61
727.688
732.236