/*--------------------------------*- C++ -*----------------------------------*\
| =========                 |                                                 |
| \\      /  F ield         | OpenFOAM: The Open Source CFD Toolbox           |
|  \\    /   O peration     | Version:  2.2.x                                 |
|   \\  /    A nd           | Web:      www.OpenFOAM.org                      |
|    \\/     M anipulation  |                                                 |
\*---------------------------------------------------------------------------*/
FoamFile
{
    version     2.0;
    format      ascii;
    class       volScalarField;
    location    "350";
    object      k;
}
// * * * * * * * * * * * * * * * * * * * * * * * * * * * * * * * * * * * * * //

dimensions      [0 2 -2 0 0 0 0];

internalField   nonuniform List<scalar> 
12225
(
0.773254
1.11727
1.35409
1.50336
1.59084
1.63717
1.65705
1.66039
1.65371
1.64119
1.62546
1.60818
1.59038
1.57271
1.55552
1.53904
1.52311
1.50919
0.492803
0.515897
0.520061
0.519335
0.515965
0.511062
0.505588
0.500227
0.495399
0.491334
0.488136
0.485824
0.484368
0.483714
0.483807
0.484673
0.486908
0.49039
0.412017
0.424096
0.421859
0.414168
0.404225
0.39341
0.382461
0.371809
0.361712
0.352321
0.343712
0.335914
0.32892
0.322705
0.317229
0.312459
0.308351
0.304705
0.381869
0.385949
0.386337
0.383939
0.379748
0.374467
0.368565
0.362355
0.356051
0.349798
0.343696
0.337812
0.332191
0.326857
0.321826
0.317101
0.312672
0.308536
0.375243
0.375519
0.374935
0.373413
0.371106
0.368205
0.364884
0.361286
0.357524
0.353681
0.349823
0.345997
0.34224
0.338579
0.335032
0.331611
0.328325
0.325198
0.373469
0.372204
0.370886
0.369331
0.367504
0.36543
0.363155
0.36073
0.358202
0.355612
0.352993
0.350372
0.347771
0.345208
0.342697
0.340247
0.337868
0.335586
0.372982
0.371101
0.36935
0.367627
0.365876
0.364075
0.362219
0.360315
0.358376
0.356416
0.35445
0.352488
0.350544
0.348625
0.34674
0.344896
0.343099
0.341369
0.372867
0.370792
0.36886
0.367023
0.365245
0.363499
0.36177
0.360052
0.358344
0.356649
0.354969
0.35331
0.351675
0.350071
0.348499
0.346964
0.34547
0.344034
0.372829
0.37068
0.368664
0.366759
0.364944
0.363201
0.361515
0.359876
0.358276
0.356714
0.355186
0.353694
0.352236
0.350814
0.349429
0.348081
0.346773
0.345519
0.372814
0.370635
0.368578
0.366633
0.364789
0.363033
0.361355
0.359746
0.358198
0.356705
0.355264
0.353871
0.352523
0.351219
0.349957
0.348737
0.347558
0.346433
0.372807
0.370616
0.368542
0.366578
0.364715
0.362946
0.361264
0.35966
0.35813
0.356666
0.355265
0.353921
0.352631
0.351393
0.350202
0.349058
0.347959
0.346914
0.372803
0.370607
0.368526
0.366553
0.364681
0.362903
0.361215
0.359609
0.35808
0.356624
0.355235
0.35391
0.352644
0.351434
0.350277
0.349169
0.34811
0.347108
0.3728
0.370601
0.368516
0.366539
0.364662
0.36288
0.361187
0.359577
0.358046
0.356589
0.355202
0.35388
0.35262
0.351418
0.350271
0.349176
0.348131
0.347146
0.372797
0.370597
0.36851
0.36653
0.36465
0.362865
0.361169
0.359556
0.358022
0.356563
0.355173
0.35385
0.352589
0.351387
0.350241
0.349148
0.348106
0.347124
0.372796
0.370594
0.368505
0.366523
0.364641
0.362854
0.361155
0.35954
0.358004
0.356542
0.355151
0.353825
0.352562
0.351358
0.35021
0.349115
0.348072
0.347089
0.372795
0.370592
0.368502
0.366518
0.364635
0.362846
0.361146
0.359529
0.357991
0.356527
0.355133
0.353805
0.35254
0.351335
0.350185
0.349088
0.348043
0.347058
0.372794
0.37059
0.3685
0.366515
0.364631
0.362841
0.361139
0.359521
0.357981
0.356516
0.355121
0.353791
0.352525
0.351317
0.350166
0.349067
0.348021
0.347035
0.372794
0.37059
0.368499
0.366514
0.364629
0.362838
0.361136
0.359517
0.357977
0.35651
0.355114
0.353784
0.352516
0.351308
0.350155
0.349056
0.348008
0.347022
0.372794
0.37059
0.3685
0.366515
0.36463
0.362839
0.361136
0.359517
0.357977
0.35651
0.355113
0.353783
0.352515
0.351306
0.350153
0.349054
0.348006
0.347019
0.372795
0.370591
0.368501
0.366517
0.364632
0.362842
0.36114
0.359521
0.357981
0.356515
0.355119
0.353788
0.352521
0.351312
0.35016
0.34906
0.348013
0.347026
0.372795
0.370593
0.368504
0.36652
0.364637
0.362848
0.361148
0.359531
0.357993
0.356529
0.355134
0.353806
0.35254
0.351333
0.350181
0.349082
0.348035
0.347048
0.372797
0.370596
0.368509
0.36653
0.364652
0.362869
0.361175
0.359565
0.358033
0.356575
0.355186
0.353862
0.352598
0.351392
0.350239
0.349137
0.348085
0.347092
0.3728
0.370606
0.368532
0.36657
0.364713
0.362953
0.361281
0.359692
0.358176
0.35673
0.355346
0.35402
0.352749
0.351528
0.350355
0.349228
0.348145
0.347117
0.372815
0.370662
0.368649
0.366761
0.36498
0.363289
0.361672
0.360118
0.358616
0.357162
0.355751
0.354379
0.353045
0.351747
0.350486
0.34926
0.34807
0.346931
0.372911
0.370959
0.369194
0.367544
0.365952
0.364383
0.362817
0.361246
0.359668
0.358089
0.356512
0.354944
0.35339
0.351855
0.350343
0.34886
0.347408
0.346005
0.373469
0.372366
0.371364
0.370237
0.368903
0.367357
0.365627
0.363754
0.361778
0.359733
0.357645
0.355539
0.353432
0.351338
0.34927
0.347236
0.345244
0.343315
0.376461
0.378228
0.378834
0.378173
0.37655
0.374272
0.371563
0.368577
0.365422
0.362171
0.35888
0.355587
0.352322
0.349108
0.345959
0.34289
0.339909
0.337039
0.392606
0.40134
0.402164
0.399515
0.395304
0.390341
0.385013
0.379524
0.373994
0.368503
0.363106
0.357847
0.352756
0.347855
0.343159
0.338677
0.334411
0.330371
0.438299
0.449784
0.450808
0.449577
0.447829
0.445851
0.443728
0.441506
0.439221
0.436911
0.434615
0.432368
0.430201
0.428139
0.426198
0.424382
0.422679
0.421032
0.544749
0.705344
0.836386
0.946124
1.04199
1.12366
1.19166
1.24711
1.2914
1.32605
1.35252
1.37215
1.38615
1.39556
1.40126
1.40399
1.40439
1.4029
0.0152047
0.0256055
0.0323711
0.0376563
0.0434454
0.0493207
0.0559239
0.0639477
0.0725795
0.0818856
0.0917099
0.101923
0.112449
0.123251
0.134326
0.145706
0.157339
0.16914
0.181081
0.193142
0.205306
0.217558
0.229883
0.24227
0.254705
0.267179
0.27968
0.292199
0.304728
0.317259
0.329783
0.342295
0.354786
0.367252
0.379688
0.392086
0.404444
0.416756
0.429019
0.441229
0.453383
0.465477
0.477508
0.489474
0.501372
0.513199
0.524951
0.536627
0.548222
0.559733
0.571157
0.58249
0.593728
0.604867
0.615901
0.626826
0.637637
0.648328
0.658892
0.669324
0.679616
0.689762
0.699754
0.709585
0.719247
0.728735
0.738041
0.747159
0.756083
0.764808
0.773331
0.781647
0.789755
0.797654
0.805347
0.812836
0.820125
0.827222
0.834135
0.840875
0.847455
0.853889
0.860195
0.866393
0.872501
0.878544
0.884545
0.890527
0.896518
0.902543
0.908629
0.9148
0.921082
0.927499
0.934072
0.940822
0.947767
0.954922
0.962301
0.969914
0.97777
0.985873
0.994229
1.00284
1.01171
1.02083
1.03022
1.03988
1.04984
1.06013
1.07082
1.08201
1.09387
1.1062
1.11864
1.13116
1.14372
1.15627
1.16878
1.1812
1.19347
1.20552
1.21728
1.22867
1.2396
1.24996
1.25961
1.26841
1.27618
1.28273
1.28782
1.29122
1.29264
1.29177
1.28827
1.28183
1.27214
1.25889
1.24191
1.22111
1.19619
1.16786
1.13763
1.10607
1.08236
1.0585
1.03294
1.00593
0.977867
0.949184
0.920282
0.891497
0.863129
0.835429
0.808564
0.78266
0.757819
0.734104
0.711537
0.69012
0.669846
0.650688
0.632606
0.615555
0.599481
0.584334
0.570059
0.556598
0.543894
0.531889
0.52052
0.50972
0.499416
0.489521
0.479919
0.470456
0.461244
0.451987
0.442063
0.429149
0.0338638
0.0630073
0.0843993
0.101558
0.116126
0.130095
0.144559
0.160117
0.176898
0.194773
0.21355
0.233069
0.253211
0.273887
0.295029
0.316577
0.338475
0.360675
0.38314
0.40584
0.428749
0.451843
0.475099
0.498496
0.522015
0.545638
0.569345
0.593121
0.616949
0.640812
0.664696
0.688586
0.712468
0.736329
0.760156
0.783938
0.807662
0.831319
0.854898
0.87839
0.901786
0.925078
0.948259
0.971321
0.994256
1.01706
1.03972
1.06224
1.0846
1.1068
1.12884
1.1507
1.17238
1.19387
1.21516
1.23624
1.2571
1.27773
1.29811
1.31824
1.3381
1.35768
1.37696
1.39592
1.41455
1.43283
1.45074
1.46828
1.48541
1.50213
1.51843
1.53427
1.54966
1.56459
1.57904
1.593
1.60649
1.61949
1.63201
1.64406
1.65565
1.66679
1.67751
1.68783
1.69778
1.70739
1.71669
1.72574
1.73457
1.74324
1.75179
1.76027
1.76875
1.77728
1.78591
1.79472
1.80375
1.81306
1.82272
1.83278
1.8433
1.85434
1.86595
1.87818
1.89109
1.90473
1.91915
1.93441
1.95056
1.96764
1.98572
2.00484
2.02493
2.04557
2.06705
2.08942
2.11266
2.13677
2.16174
2.18752
2.21407
2.24132
2.26919
2.29755
2.32626
2.35513
2.38391
2.41233
2.44003
2.46657
2.49144
2.51403
2.53367
2.5496
2.56097
2.56686
2.56639
2.55866
2.54289
2.51843
2.48481
2.44135
2.39103
2.33363
2.27272
2.20752
2.13885
2.06778
1.99537
1.92256
1.85023
1.77906
1.70964
1.64243
1.57778
1.5159
1.45693
1.40094
1.34794
1.29788
1.25069
1.20626
1.16447
1.12519
1.08829
1.05362
1.02105
0.990436
0.961639
0.93453
0.908984
0.884876
0.862077
0.84047
0.819921
0.800293
0.781361
0.763027
0.745132
0.728447
0.0516388
0.102147
0.132271
0.154722
0.174585
0.193865
0.213625
0.234417
0.256425
0.279602
0.303807
0.328887
0.354706
0.381154
0.40814
0.435592
0.46345
0.491663
0.520191
0.549001
0.578064
0.607355
0.636849
0.666525
0.696363
0.726343
0.756446
0.786653
0.816947
0.847309
0.877723
0.908171
0.938636
0.969104
0.999558
1.02998
1.06036
1.09069
1.12094
1.15111
1.18119
1.21117
1.24102
1.27076
1.30035
1.32981
1.35911
1.38826
1.41723
1.44603
1.47464
1.50306
1.53128
1.55929
1.58708
1.61463
1.64195
1.66901
1.6958
1.72231
1.74853
1.77443
1.8
1.82522
1.85007
1.87454
1.8986
1.92222
1.9454
1.9681
1.99031
2.012
2.03316
2.05377
2.0738
2.09326
2.11211
2.13037
2.14801
2.16504
2.18146
2.19727
2.21249
2.22713
2.2412
2.25474
2.26778
2.28034
2.29246
2.30419
2.31557
2.32665
2.33749
2.34814
2.35865
2.36909
2.37952
2.39001
2.40061
2.41139
2.42243
2.43378
2.44551
2.45769
2.4704
2.48369
2.49764
2.51232
2.52779
2.54414
2.56142
2.57973
2.59868
2.61842
2.63905
2.66063
2.68319
2.70674
2.73131
2.75689
2.78347
2.81102
2.83949
2.8688
2.89883
2.9294
2.96031
2.99126
3.02188
3.0517
3.08016
3.10652
3.12996
3.1495
3.16403
3.17232
3.1731
3.16512
3.14714
3.1179
3.07692
3.02547
2.96551
2.89758
2.82314
2.74291
2.65815
2.57026
2.48059
2.39037
2.30067
2.21241
2.12632
2.04297
1.96278
1.88605
1.81294
1.74352
1.67781
1.61573
1.55721
1.50209
1.45023
1.40147
1.35563
1.31254
1.27202
1.23391
1.19803
1.16424
1.13239
1.10232
1.07389
1.04699
1.02148
0.997267
0.97421
0.952397
0.932011
0.914418
0.0670942
0.136866
0.174242
0.202011
0.226352
0.249673
0.273192
0.297545
0.323009
0.349631
0.37734
0.406014
0.435527
0.465761
0.496618
0.528017
0.559891
0.592187
0.624861
0.657876
0.691201
0.724811
0.75868
0.792786
0.827109
0.861627
0.896321
0.931172
0.966159
1.00126
1.03647
1.07175
1.10709
1.14248
1.17789
1.21331
1.24871
1.28409
1.31942
1.3547
1.38991
1.42502
1.46005
1.49496
1.52975
1.56441
1.59893
1.63331
1.66752
1.70157
1.73544
1.76913
1.80263
1.83592
1.86901
1.90187
1.9345
1.96689
1.99903
2.03089
2.06247
2.09374
2.12469
2.1553
2.18555
2.21541
2.24487
2.27388
2.30244
2.33051
2.35806
2.38506
2.4115
2.43733
2.46253
2.48708
2.51095
2.53413
2.55658
2.57831
2.59928
2.6195
2.63896
2.65765
2.67559
2.69278
2.70923
2.72497
2.74002
2.75441
2.76817
2.78134
2.79397
2.80609
2.81777
2.82905
2.83999
2.85066
2.86111
2.87141
2.88163
2.89184
2.90211
2.91251
2.92312
2.93403
2.9453
2.95702
2.96927
2.98214
2.99569
3.01001
3.02481
3.04026
3.05645
3.07347
3.09136
3.1102
3.13004
3.15091
3.17286
3.19591
3.22007
3.24533
3.27164
3.29891
3.32699
3.35568
3.38468
3.41359
3.44186
3.46878
3.49347
3.51484
3.5316
3.54227
3.54523
3.53884
3.52123
3.49158
3.45026
3.39777
3.3352
3.26325
3.18298
3.09557
3.00255
2.90556
2.80619
2.70587
2.60589
2.50732
2.41105
2.31773
2.22789
2.14187
2.05986
1.98197
1.9082
1.8385
1.77275
1.71081
1.65251
1.59765
1.54606
1.49753
1.45186
1.40889
1.36841
1.33026
1.29427
1.26029
1.22818
1.19782
1.16908
1.14191
1.11623
1.09222
1.07016
1.05121
0.0828887
0.165854
0.210375
0.243146
0.271498
0.298238
0.324767
0.351839
0.379835
0.4089
0.439042
0.470192
0.502254
0.535124
0.568709
0.602924
0.637703
0.672988
0.708733
0.744899
0.781454
0.818368
0.855617
0.893177
0.931026
0.969143
1.00751
1.04609
1.08489
1.12386
1.163
1.20228
1.24167
1.28117
1.32074
1.36037
1.40003
1.43972
1.4794
1.51907
1.5587
1.59829
1.63781
1.67725
1.7166
1.75586
1.795
1.83402
1.87292
1.91167
1.95028
1.98874
2.02703
2.06515
2.1031
2.14085
2.17841
2.21576
2.25289
2.28979
2.32643
2.3628
2.39889
2.43467
2.47012
2.50521
2.53992
2.57421
2.60805
2.64141
2.67426
2.70655
2.73825
2.76933
2.79973
2.82942
2.85836
2.88653
2.91387
2.94036
2.96596
2.99066
3.01441
3.03722
3.05905
3.07991
3.09979
3.11868
3.1366
3.15356
3.16958
3.18467
3.19888
3.21223
3.22476
3.23652
3.24757
3.25794
3.2677
3.27692
3.28565
3.29397
3.30195
3.30965
3.31717
3.32457
3.33195
3.33939
3.34698
3.35481
3.36295
3.37146
3.38015
3.38919
3.39868
3.40872
3.41939
3.43078
3.44299
3.4561
3.47021
3.48541
3.50178
3.5194
3.53832
3.55856
3.58011
3.60291
3.6268
3.65153
3.67669
3.70168
3.72568
3.74761
3.76609
3.77941
3.78566
3.78272
3.76904
3.74396
3.70705
3.65831
3.59818
3.52721
3.44635
3.35691
3.2606
3.15922
3.05456
2.94829
2.84189
2.73662
2.6335
2.53335
2.43675
2.34414
2.25575
2.17172
2.09209
2.01679
1.94572
1.87872
1.81562
1.75622
1.70032
1.6477
1.59815
1.55149
1.50751
1.46604
1.42691
1.38995
1.35503
1.32202
1.29083
1.26141
1.23374
1.20799
1.18445
1.16397
0.0972443
0.190086
0.240663
0.277787
0.309647
0.339343
0.368415
0.397714
0.427706
0.458625
0.490553
0.523483
0.557359
0.592108
0.627649
0.663909
0.700823
0.738336
0.776401
0.814979
0.854034
0.89354
0.933467
0.973793
1.01449
1.05555
1.09693
1.13862
1.18059
1.22283
1.2653
1.30799
1.35087
1.39392
1.43711
1.48042
1.52383
1.56731
1.61086
1.65444
1.69804
1.74164
1.78523
1.82879
1.8723
1.91576
1.95916
2.00248
2.04571
2.08885
2.1319
2.17483
2.21766
2.26036
2.30293
2.34537
2.38766
2.4298
2.47177
2.51356
2.55516
2.59655
2.6377
2.67861
2.71923
2.75955
2.79953
2.83913
2.87832
2.91706
2.95531
2.99301
3.03012
3.06658
3.10235
3.13737
3.17159
3.20494
3.23738
3.26885
3.2993
3.32869
3.35697
3.38409
3.41003
3.43475
3.45822
3.48043
3.50136
3.52101
3.53938
3.55648
3.57231
3.5869
3.60027
3.61247
3.62352
3.63347
3.64238
3.6503
3.65728
3.66339
3.6687
3.67327
3.67719
3.68053
3.68337
3.68579
3.68789
3.68976
3.69151
3.69302
3.69433
3.69555
3.69678
3.69814
3.69972
3.70165
3.70403
3.70702
3.71073
3.71533
3.72098
3.72784
3.73611
3.74592
3.75744
3.77079
3.78605
3.80318
3.82203
3.84224
3.86318
3.88392
3.90312
3.91889
3.92927
3.93214
3.92588
3.90909
3.88067
3.83995
3.78675
3.72129
3.64436
3.55725
3.46173
3.35974
3.25328
3.14422
3.03428
2.92491
2.81733
2.71249
2.61111
2.5137
2.42058
2.33194
2.24783
2.16822
2.09302
2.02207
1.95519
1.89219
1.83285
1.77695
1.72429
1.67466
1.62785
1.58368
1.54198
1.50259
1.46537
1.4302
1.39701
1.36575
1.33641
1.30918
1.28424
1.26222
0.109546
0.209637
0.26513
0.305872
0.340689
0.372893
0.404116
0.435272
0.466891
0.49927
0.532554
0.566793
0.601977
0.638064
0.675001
0.712728
0.75119
0.790339
0.83013
0.870526
0.911494
0.953005
0.995032
1.03755
1.08054
1.12397
1.16782
1.21207
1.25669
1.30166
1.34695
1.39254
1.43841
1.48452
1.53085
1.57738
1.62409
1.67094
1.71791
1.765
1.81217
1.8594
1.90668
1.95399
2.00133
2.04867
2.096
2.14332
2.19062
2.23788
2.28511
2.3323
2.37943
2.42651
2.47353
2.52049
2.56737
2.61417
2.66088
2.70748
2.75397
2.80032
2.84652
2.89254
2.93835
2.98393
3.02924
3.07424
3.11888
3.16312
3.2069
3.25017
3.29287
3.33493
3.37628
3.41686
3.45658
3.49539
3.5332
3.56994
3.60553
3.63991
3.673
3.70475
3.73509
3.76397
3.79134
3.81715
3.84138
3.86399
3.88497
3.90431
3.922
3.93804
3.95245
3.96525
3.97647
3.98614
3.9943
4.00099
4.00628
4.0102
4.01283
4.01422
4.01445
4.01357
4.01167
4.00882
4.00511
4.00061
3.99543
3.98941
3.98265
3.97523
3.96726
3.95885
3.95011
3.94117
3.93217
3.92326
3.9146
3.90641
3.8989
3.89234
3.88702
3.88326
3.88137
3.88171
3.88463
3.89042
3.89926
3.91118
3.92589
3.94284
3.96082
3.9782
3.99309
4.00332
4.00676
4.00125
3.98488
3.95615
3.91415
3.85859
3.7899
3.70924
3.61834
3.51923
3.4141
3.30507
3.19408
3.08284
2.97278
2.86503
2.76046
2.65968
2.56313
2.47104
2.38353
2.30058
2.22213
2.14804
2.07814
2.01222
1.95008
1.89151
1.83627
1.78418
1.73501
1.68859
1.64473
1.60329
1.56413
1.52713
1.49224
1.45941
1.42864
1.40004
1.37378
1.35025
0.119639
0.224747
0.284052
0.327656
0.364849
0.39909
0.432071
0.46474
0.497665
0.531186
0.565494
0.600685
0.63679
0.673802
0.711691
0.750421
0.78995
0.830239
0.87125
0.912952
0.955314
0.998309
1.04191
1.0861
1.13085
1.17613
1.22194
1.26823
1.31498
1.36218
1.4098
1.4578
1.50617
1.55487
1.60388
1.65317
1.70272
1.7525
1.80249
1.85266
1.903
1.95348
2.00408
2.05479
2.1056
2.15649
2.20745
2.25848
2.30955
2.36067
2.41183
2.46303
2.51426
2.56552
2.61681
2.66811
2.71943
2.77077
2.8221
2.87342
2.92472
2.97599
3.02719
3.07832
3.12933
3.1802
3.23089
3.28135
3.33153
3.38139
3.43085
3.47985
3.52831
3.57617
3.62333
3.66971
3.71521
3.75975
3.80322
3.84553
3.88659
3.92629
3.96455
4.00128
4.03638
4.06979
4.10142
4.13121
4.15911
4.18506
4.20902
4.23096
4.25086
4.26872
4.28451
4.29826
4.30998
4.31968
4.3274
4.33318
4.33705
4.33906
4.33927
4.33772
4.33447
4.32959
4.32312
4.31514
4.30569
4.29487
4.28273
4.2691
4.25407
4.23773
4.22016
4.20148
4.18179
4.16122
4.13989
4.11796
4.09561
4.07306
4.05057
4.02848
4.00717
3.9871
3.96874
3.95267
3.93955
3.93003
3.92473
3.9242
3.92866
3.93817
3.95199
3.969
3.98744
4.00506
4.01921
4.02702
4.02562
4.01251
3.98582
3.94448
3.88836
3.81828
3.73581
3.64306
3.54235
3.43606
3.32642
3.21541
3.1047
2.99566
2.88933
2.78647
2.68763
2.59311
2.50311
2.41765
2.33671
2.26017
2.18786
2.11961
2.0552
1.99443
1.93707
1.88292
1.83178
1.78345
1.73777
1.69459
1.65376
1.6152
1.57882
1.54461
1.51258
1.48273
1.45519
1.43024
0.127538
0.23571
0.297807
0.343554
0.382547
0.418349
0.452682
0.486514
0.52043
0.554794
0.58983
0.625666
0.662365
0.69995
0.738419
0.777754
0.817931
0.858922
0.9007
0.943241
0.986518
1.03051
1.07519
1.12055
1.16656
1.21319
1.26043
1.30826
1.35665
1.40557
1.455
1.50491
1.55529
1.60609
1.6573
1.70888
1.76081
1.81307
1.86563
1.91846
1.97155
2.02487
2.07841
2.13215
2.18607
2.24016
2.29442
2.34883
2.40338
2.45807
2.5129
2.56786
2.62295
2.67816
2.73351
2.78898
2.84457
2.90028
2.95611
3.01203
3.06805
3.12415
3.18031
3.2365
3.29269
3.34885
3.40495
3.46092
3.51672
3.57228
3.62753
3.6824
3.7368
3.79064
3.84381
3.89622
3.94775
3.99829
4.04772
4.09592
4.14276
4.18814
4.23192
4.27399
4.31425
4.35257
4.38887
4.42305
4.45503
4.48474
4.51211
4.53709
4.55965
4.57974
4.59736
4.6125
4.62515
4.63533
4.64305
4.64835
4.65126
4.6518
4.65003
4.64598
4.63971
4.63124
4.62063
4.60792
4.59316
4.57638
4.55761
4.53664
4.51356
4.48844
4.46136
4.43241
4.40168
4.36926
4.33528
4.29986
4.26317
4.22542
4.18687
4.14787
4.10887
4.07043
4.03317
3.99782
3.96529
3.93666
3.91306
3.89551
3.88522
3.88278
3.88832
3.90133
3.9205
3.94371
3.96802
3.98988
4.00544
4.011
4.00343
3.98056
3.94139
3.88614
3.81608
3.73326
3.64015
3.53939
3.43351
3.32482
3.2153
3.10655
2.99985
2.89613
2.79607
2.7001
2.60847
2.52129
2.43856
2.36019
2.28606
2.21599
2.14979
2.08725
2.02817
1.97233
1.91955
1.86964
1.82242
1.77775
1.73551
1.69559
1.65793
1.6225
1.58931
1.55831
1.52957
1.50329
0.133322
0.242857
0.306833
0.354064
0.394317
0.431216
0.466499
0.501137
0.535722
0.570632
0.606106
0.642295
0.679286
0.717127
0.755837
0.795417
0.835861
0.877154
0.91928
0.962222
1.00596
1.05049
1.09578
1.14182
1.18859
1.23607
1.28425
1.3331
1.3826
1.43274
1.48348
1.5348
1.58667
1.63908
1.69199
1.74538
1.79922
1.85349
1.90816
1.96321
2.01862
2.07436
2.13042
2.18679
2.24345
2.30038
2.35758
2.41504
2.47275
2.5307
2.58891
2.64736
2.70605
2.76499
2.82417
2.8836
2.94327
3.00319
3.06334
3.12373
3.18435
3.24517
3.30619
3.36738
3.42871
3.49014
3.55164
3.61313
3.67458
3.73591
3.79703
3.85787
3.91833
3.9783
4.03766
4.0963
4.15408
4.21086
4.2665
4.32087
4.3738
4.42517
4.47481
4.52259
4.56836
4.61199
4.65335
4.69233
4.72882
4.76271
4.79393
4.8224
4.84805
4.87085
4.89076
4.90775
4.92182
4.93296
4.94119
4.94651
4.94895
4.94855
4.94532
4.93931
4.93055
4.91906
4.90486
4.88799
4.86846
4.8463
4.82142
4.79361
4.76295
4.72949
4.69329
4.65443
4.61296
4.56895
4.52248
4.47365
4.42259
4.36948
4.31453
4.25806
4.20048
4.1425
4.08481
4.02823
3.97372
3.9229
3.87751
3.83905
3.80937
3.78993
3.78187
3.78563
3.80078
3.82572
3.85762
3.89254
3.92569
3.95203
3.96687
3.96651
3.94868
3.91265
3.85916
3.79005
3.70789
3.61557
3.51598
3.41178
3.30531
3.19848
3.09281
2.98947
2.88929
2.79282
2.70042
2.61227
2.52844
2.44887
2.37347
2.3021
2.23456
2.17068
2.11026
2.05309
1.99899
1.94778
1.89929
1.85339
1.80995
1.76888
1.73011
1.69361
1.65937
1.62733
1.59748
1.56996
0.137099
0.24655
0.3116
0.359734
0.400756
0.438319
0.474164
0.509257
0.54419
0.579343
0.614965
0.65122
0.688212
0.726006
0.764639
0.804129
0.844484
0.885703
0.927782
0.970714
1.01449
1.0591
1.10454
1.15079
1.19785
1.24569
1.29431
1.34368
1.3938
1.44464
1.49618
1.54839
1.60127
1.65478
1.7089
1.76361
1.81887
1.87468
1.931
1.98781
2.0451
2.10284
2.16102
2.21962
2.27862
2.33802
2.39781
2.45798
2.51853
2.57944
2.64073
2.70239
2.76442
2.82683
2.88961
2.95278
3.01632
3.08026
3.14457
3.20927
3.27433
3.33976
3.40553
3.47162
3.53801
3.60464
3.67149
3.73849
3.80558
3.87268
3.93971
4.00657
4.07316
4.13936
4.20503
4.27004
4.33423
4.39744
4.45951
4.52027
4.57954
4.63716
4.69295
4.74673
4.79833
4.8476
4.89438
4.93852
4.97988
5.01835
5.05382
5.08618
5.11536
5.14129
5.16392
5.18322
5.19916
5.21172
5.22091
5.22674
5.22922
5.22836
5.2242
5.21675
5.20604
5.19207
5.17485
5.15438
5.13068
5.10371
5.07327
5.03917
5.00148
4.96023
4.91544
4.86717
4.81546
4.76034
4.70184
4.64002
4.57497
4.50681
4.43572
4.36192
4.28558
4.2078
4.12922
4.05073
3.97348
3.89921
3.82983
3.76742
3.71437
3.67302
3.64558
3.63376
3.6384
3.65908
3.69372
3.73848
3.78795
3.83574
3.87535
3.9011
3.90887
3.89656
3.86398
3.8126
3.74495
3.66418
3.57353
3.47611
3.37465
3.27142
3.16826
3.06657
2.96737
2.8714
2.77911
2.69078
2.60654
2.5264
2.4503
2.37813
2.30973
2.24493
2.18355
2.1254
2.0703
2.01809
1.9686
1.92171
1.87729
1.83526
1.79555
1.75813
1.72297
1.68998
1.65912
1.63049
0.139002
0.247166
0.312599
0.361132
0.402494
0.440331
0.476377
0.511591
0.546558
0.581657
0.61714
0.653178
0.689887
0.727343
0.765596
0.804679
0.844611
0.885405
0.927068
0.969602
1.01301
1.05729
1.10244
1.14846
1.19534
1.24307
1.29165
1.34107
1.39131
1.44237
1.49422
1.54684
1.60023
1.65436
1.70921
1.76476
1.82099
1.87787
1.9354
1.99354
2.05229
2.11161
2.1715
2.23195
2.29293
2.35445
2.41649
2.47904
2.5421
2.60568
2.66977
2.73437
2.79948
2.86512
2.93127
2.99796
3.06518
3.13294
3.20123
3.27006
3.33942
3.4093
3.47969
3.55056
3.62189
3.69364
3.76575
3.83818
3.91085
3.98369
4.0566
4.12948
4.20221
4.27466
4.34668
4.41813
4.48883
4.55857
4.62718
4.69447
4.76024
4.82428
4.8864
4.9464
5.00406
5.05922
5.11166
5.16124
5.20777
5.25111
5.29113
5.32771
5.36074
5.39015
5.41586
5.43782
5.456
5.47036
5.48091
5.48764
5.49055
5.48966
5.48498
5.47652
5.46428
5.44827
5.42848
5.40488
5.37747
5.34618
5.31057
5.27061
5.22634
5.17775
5.12479
5.06757
5.00608
4.9403
4.87024
4.79592
4.71737
4.63468
4.548
4.45756
4.36366
4.26705
4.16844
4.06877
3.96927
3.87163
3.77782
3.69017
3.61139
3.54449
3.49262
3.45883
3.44561
3.45432
3.48447
3.53322
3.59525
3.66313
3.72842
3.783
3.82029
3.83613
3.82897
3.79953
3.75018
3.68425
3.60539
3.51716
3.42277
3.32491
3.22578
3.12707
3.03004
2.93558
2.84431
2.75662
2.6727
2.59264
2.51644
2.444
2.37521
2.30993
2.24799
2.18921
2.13345
2.08054
2.03033
1.98269
1.93752
1.89473
1.85426
1.81607
1.78011
1.7463
1.71455
1.68492
0.139185
0.245096
0.310325
0.358831
0.400164
0.437936
0.473861
0.508889
0.543597
0.57836
0.613431
0.648984
0.685139
0.721983
0.759573
0.797954
0.837155
0.877201
0.918107
0.95989
1.00256
1.04612
1.09059
1.13596
1.18224
1.22944
1.27755
1.32656
1.37648
1.4273
1.47901
1.53159
1.58504
1.63934
1.69448
1.75044
1.80721
1.86476
1.92308
1.98216
2.04197
2.10251
2.16376
2.22571
2.28835
2.35166
2.41564
2.48029
2.54561
2.61158
2.67822
2.74552
2.8135
2.88214
2.95147
3.02149
3.09219
3.16359
3.23569
3.30849
3.38199
3.45617
3.53102
3.60653
3.68267
3.75938
3.83664
3.91438
3.99252
4.07098
4.14967
4.22847
4.30725
4.38588
4.46419
4.54205
4.61924
4.6955
4.77066
4.84449
4.91677
4.98729
5.0558
5.12208
5.1859
5.24704
5.30528
5.36042
5.41227
5.46065
5.5054
5.54639
5.58347
5.61657
5.64557
5.67042
5.69107
5.70748
5.71963
5.72751
5.73111
5.73043
5.72548
5.71626
5.70276
5.68496
5.66283
5.63634
5.60544
5.56995
5.52937
5.48376
5.43311
5.37743
5.31668
5.25087
5.17999
5.10401
5.0229
4.93665
4.84528
4.74887
4.64755
4.54155
4.43125
4.31721
4.20012
4.08092
3.9608
3.84131
3.72433
3.61216
3.50755
3.41375
3.3345
3.27389
3.23604
3.22448
3.24117
3.28546
3.35331
3.43715
3.52688
3.61159
3.68154
3.72971
3.75247
3.74933
3.72224
3.67462
3.61052
3.53403
3.44887
3.35825
3.26475
3.17042
3.07676
2.9849
2.89561
2.80939
2.72656
2.64727
2.57156
2.49942
2.43075
2.36544
2.30335
2.24433
2.18825
2.13494
2.08429
2.03617
1.99048
1.94714
1.9061
1.86729
1.83069
1.7962
1.76367
1.73319
0.137822
0.240728
0.305266
0.353391
0.394389
0.431809
0.467339
0.501914
0.536103
0.570277
0.604687
0.639509
0.674868
0.710854
0.747529
0.784946
0.823144
0.862156
0.90201
0.94273
0.984337
1.02685
1.07029
1.11466
1.15998
1.20627
1.25353
1.30176
1.35098
1.40117
1.45235
1.50451
1.55764
1.61174
1.6668
1.7228
1.77975
1.83762
1.8964
1.95609
2.01667
2.07812
2.14044
2.20362
2.26765
2.33252
2.39822
2.46475
2.53211
2.60029
2.6693
2.73913
2.8098
2.8813
2.95364
3.02683
3.10088
3.17578
3.25154
3.32816
3.40563
3.48396
3.56313
3.64311
3.72388
3.80539
3.88761
3.97046
4.05388
4.13777
4.22203
4.30655
4.39117
4.47576
4.56014
4.64413
4.72752
4.81007
4.89155
4.97173
5.05037
5.1272
5.20197
5.27443
5.34431
5.41137
5.47536
5.53604
5.59321
5.64664
5.69616
5.74159
5.7828
5.81964
5.85203
5.87986
5.90308
5.92163
5.93548
5.9446
5.94899
5.94862
5.9435
5.9336
5.9189
5.89937
5.87495
5.84561
5.81122
5.77145
5.72591
5.67466
5.6177
5.555
5.48655
5.41231
5.33226
5.24634
5.15452
5.0568
4.95319
4.84377
4.7287
4.60824
4.48276
4.35278
4.21898
4.08224
3.9437
3.80476
3.66711
3.53284
3.40449
3.28517
3.17863
3.08942
3.02271
2.98397
2.97803
3.0076
3.07159
3.16394
3.27388
3.38783
3.49224
3.57624
3.63318
3.6607
3.65992
3.63418
3.58793
3.5258
3.45213
3.37066
3.28446
3.19594
3.10693
3.01878
2.93246
2.84861
2.76765
2.68984
2.61528
2.54401
2.47598
2.41112
2.34932
2.29046
2.23442
2.18105
2.13026
2.08193
2.03597
1.9923
1.95087
1.91164
1.87454
1.83951
1.80636
1.77517
0.135115
0.234454
0.2979
0.345358
0.385776
0.422614
0.457525
0.491428
0.524883
0.558254
0.591794
0.625677
0.660037
0.694975
0.730531
0.766769
0.803741
0.841489
0.880052
0.919464
0.959755
1.00096
1.04309
1.08619
1.13028
1.17538
1.2215
1.26866
1.31688
1.36617
1.41654
1.46799
1.52053
1.57415
1.62887
1.68467
1.74155
1.79951
1.85854
1.91862
1.97977
2.04195
2.10517
2.16942
2.23469
2.30098
2.36826
2.43655
2.50584
2.57612
2.6474
2.71966
2.79292
2.86718
2.94243
3.01869
3.09595
3.17421
3.25349
3.33376
3.41504
3.49731
3.58056
3.66476
3.74989
3.83591
3.92277
4.0104
4.09873
4.18766
4.2771
4.36691
4.45695
4.54707
4.63708
4.72678
4.81596
4.90437
4.99178
5.07792
5.16252
5.24531
5.32601
5.40432
5.47998
5.55269
5.62219
5.6882
5.75049
5.8088
5.86294
5.9127
5.95791
5.99842
6.0341
6.06484
6.09056
6.11119
6.12668
6.13699
6.14209
6.14196
6.13657
6.12589
6.10988
6.08847
6.06161
6.02924
5.99113
5.94676
5.89604
5.83899
5.77557
5.70576
5.62952
5.54681
5.45759
5.36182
5.25948
5.15056
5.03511
4.91325
4.78515
4.65112
4.51156
4.367
4.21814
4.06584
3.91117
3.75543
3.60014
3.44715
3.29866
3.15739
3.02668
2.9108
2.81507
2.74594
2.71053
2.71534
2.76385
2.85388
2.97614
3.11535
3.25388
3.37596
3.47071
3.53296
3.56244
3.56215
3.53684
3.49173
3.43181
3.36144
3.28421
3.20298
3.11991
3.03663
2.95429
2.87373
2.79547
2.71988
2.64714
2.57735
2.51052
2.44662
2.38557
2.32728
2.27165
2.21857
2.16795
2.1197
2.07372
2.02997
1.98837
1.9489
1.91149
1.87607
1.84246
1.81073
0.131474
0.226655
0.2887
0.335275
0.37493
0.411016
0.445145
0.478215
0.510775
0.543183
0.575687
0.608461
0.641635
0.675306
0.709547
0.744422
0.779987
0.816293
0.853387
0.891312
0.930111
0.969824
1.01049
1.05214
1.09482
1.13855
1.18337
1.2293
1.27638
1.32461
1.37402
1.42463
1.47644
1.52948
1.58374
1.63924
1.69598
1.75395
1.81316
1.8736
1.93527
1.99817
2.06228
2.1276
2.19413
2.26184
2.33075
2.40083
2.47208
2.5445
2.61807
2.69279
2.76866
2.84567
2.92382
3.00311
3.08352
3.16506
3.24772
3.33149
3.41637
3.50234
3.58938
3.67748
3.76659
3.85669
3.94771
4.0396
4.13229
4.22567
4.31965
4.4141
4.50888
4.60382
4.69873
4.79343
4.88768
4.98125
5.07387
5.16527
5.25517
5.34327
5.42927
5.51286
5.59373
5.67157
5.74608
5.81697
5.88395
5.94676
6.00515
6.05889
6.10779
6.15166
6.19035
6.22373
6.25169
6.27414
6.29101
6.30225
6.30781
6.30764
6.30169
6.28992
6.27225
6.24862
6.21894
6.18307
6.14064
6.09131
6.03505
5.97185
5.90167
5.82447
5.74021
5.64885
5.55034
5.44467
5.33182
5.21184
5.08482
4.95089
4.81033
4.66346
4.51077
4.35282
4.19036
4.02428
3.85563
3.68567
3.5158
3.34768
3.18323
3.02472
2.87491
2.73734
2.61663
2.51894
2.45217
2.42554
2.44757
2.52229
2.64515
2.80169
2.97087
3.13121
3.26619
3.36656
3.42986
3.45835
3.45692
3.43137
3.3874
3.33004
3.26346
3.19098
3.11515
3.03789
2.96059
2.88424
2.80953
2.73693
2.6667
2.59902
2.53397
2.47154
2.41172
2.35443
2.29962
2.2472
2.19709
2.14922
2.10351
2.05991
2.01838
1.97888
1.94134
1.90571
1.87182
1.8397
0.127202
0.217873
0.278179
0.323646
0.362362
0.397545
0.430754
0.462857
0.494389
0.525702
0.557037
0.588573
0.620439
0.65274
0.685559
0.718969
0.753035
0.787816
0.823369
0.859748
0.897006
0.935194
0.97436
1.01455
1.05582
1.09821
1.14175
1.18649
1.23247
1.27971
1.32825
1.37812
1.42933
1.4819
1.53587
1.59122
1.64799
1.70617
1.76577
1.82679
1.88923
1.95308
2.01834
2.085
2.15304
2.22246
2.29325
2.36538
2.43885
2.51363
2.58972
2.66709
2.74572
2.82561
2.90674
2.98908
3.07262
3.15735
3.24326
3.33031
3.41851
3.50781
3.59821
3.68968
3.78218
3.87567
3.9701
4.06542
4.16155
4.25842
4.35591
4.45392
4.55231
4.65093
4.7496
4.84813
4.9463
5.04386
5.14058
5.23615
5.33028
5.42268
5.513
5.60092
5.68611
5.76824
5.84696
5.92196
5.99292
6.05955
6.12155
6.17868
6.2307
6.27739
6.31857
6.35408
6.38379
6.40758
6.42536
6.43704
6.44256
6.44184
6.43482
6.42141
6.40152
6.37507
6.34193
6.30183
6.25439
6.19954
6.13724
6.06742
5.99005
5.90508
5.81246
5.71216
5.60416
5.48844
5.36506
5.23409
5.09567
4.95004
4.7975
4.63848
4.47354
4.30332
4.12865
3.95047
3.76988
3.58813
3.40661
3.22685
3.05059
2.87973