/*--------------------------------*- C++ -*----------------------------------*\
| =========                 |                                                 |
| \\      /  F ield         | OpenFOAM: The Open Source CFD Toolbox           |
|  \\    /   O peration     | Version:  2.2.x                                 |
|   \\  /    A nd           | Web:      www.OpenFOAM.org                      |
|    \\/     M anipulation  |                                                 |
\*---------------------------------------------------------------------------*/
FoamFile
{
    version     2.0;
    format      ascii;
    class       volScalarField;
    location    "350";
    object      nut;
}
// * * * * * * * * * * * * * * * * * * * * * * * * * * * * * * * * * * * * * //

dimensions      [0 2 -1 0 0 0 0];

internalField   nonuniform List<scalar> 
12225
(
3.09428e-05
3.71945e-05
4.0947e-05
4.31451e-05
4.43826e-05
4.50242e-05
4.52967e-05
4.53424e-05
4.52511e-05
4.50794e-05
4.48628e-05
4.46238e-05
4.43763e-05
4.4129e-05
4.38874e-05
4.36542e-05
4.34279e-05
4.32289e-05
0.000116613
6.93685e-05
5.16055e-05
4.24152e-05
3.71543e-05
3.39215e-05
3.18294e-05
3.04306e-05
2.94813e-05
2.88388e-05
2.84151e-05
2.8153e-05
2.80136e-05
2.79698e-05
2.80017e-05
2.80932e-05
2.82306e-05
2.8374e-05
0.000365114
0.000223245
0.000162461
0.000127919
0.000106044
9.125e-05
8.07097e-05
7.28857e-05
6.68887e-05
6.21741e-05
5.83919e-05
5.53082e-05
5.27613e-05
5.06358e-05
4.88461e-05
4.73225e-05
4.59967e-05
4.48469e-05
0.000644612
0.000479082
0.000378706
0.000313457
0.000268364
0.000235802
0.000211413
0.000192582
0.000177671
0.000165614
0.00015569
0.000147396
0.000140373
0.000134361
0.000129161
0.000124621
0.000120625
0.000117172
0.00078927
0.000696802
0.000611922
0.00054206
0.00048609
0.000441361
0.000405327
0.000375955
0.000351712
0.000331462
0.000314361
0.000299772
0.000287213
0.000276314
0.000266789
0.000258413
0.000251024
0.000244597
0.000836147
0.000802044
0.000758906
0.000713894
0.000670976
0.000631897
0.000597121
0.000566493
0.000539614
0.000516026
0.000495284
0.000476989
0.000460796
0.000446412
0.000433593
0.000422135
0.000411887
0.000402835
0.000848366
0.000838516
0.000822835
0.000802889
0.000780491
0.000757169
0.000734004
0.000711674
0.000690557
0.000670831
0.000652548
0.000635686
0.000620179
0.000605944
0.000592889
0.000580926
0.000569982
0.000560108
0.000850836
0.000847527
0.000841612
0.000833097
0.000822399
0.000810109
0.000796819
0.000783039
0.000769165
0.000755486
0.000742203
0.000729445
0.00071729
0.000705779
0.000694928
0.000684738
0.00067521
0.000666459
0.000851475
0.000850225
0.000848001
0.000844578
0.000839913
0.00083411
0.000827357
0.000819878
0.000811894
0.000803603
0.000795175
0.000786744
0.000778418
0.000770275
0.000762375
0.000754761
0.000747471
0.000740635
0.00085164
0.00085103
0.00085015
0.000848867
0.000847086
0.000844765
0.00084191
0.000838562
0.000834786
0.000830661
0.000826265
0.000821674
0.00081696
0.000812183
0.000807395
0.000802643
0.000797968
0.000793479
0.000851672
0.000851219
0.000850723
0.000850137
0.000849415
0.00084852
0.000847424
0.000846118
0.000844601
0.000842885
0.000840988
0.000838934
0.000836747
0.000834456
0.000832084
0.000829658
0.000827205
0.000824789
0.000851674
0.000851249
0.000850836
0.000850423
0.000849995
0.000849539
0.000849039
0.000848484
0.000847868
0.000847184
0.000846432
0.000845612
0.00084473
0.000843788
0.000842796
0.000841759
0.00084069
0.00083962
0.000851671
0.000851248
0.000850846
0.000850464
0.000850096
0.000849738
0.000849386
0.000849034
0.00084868
0.000848318
0.000847947
0.000847565
0.000847169
0.000846759
0.000846335
0.000845899
0.000845453
0.000845013
0.000851668
0.000851243
0.000850841
0.00085046
0.000850099
0.000849756
0.000849428
0.000849115
0.000848814
0.000848524
0.000848243
0.000847969
0.000847702
0.00084744
0.000847183
0.000846929
0.000846681
0.00084645
0.000851666
0.000851239
0.000850835
0.000850452
0.00085009
0.000849747
0.00084942
0.000849111
0.000848816
0.000848535
0.000848267
0.000848011
0.000847766
0.000847531
0.000847306
0.00084709
0.000846885
0.000846701
0.000851665
0.000851236
0.000850831
0.000850447
0.000850082
0.000849737
0.000849409
0.000849098
0.000848802
0.00084852
0.000848252
0.000847996
0.000847753
0.00084752
0.000847297
0.000847085
0.000846885
0.000846706
0.000851664
0.000851235
0.000850828
0.000850443
0.000850077
0.000849731
0.000849402
0.000849089
0.000848791
0.000848508
0.000848238
0.000847981
0.000847735
0.000847501
0.000847278
0.000847064
0.000846863
0.000846684
0.000851664
0.000851234
0.000850827
0.000850441
0.000850075
0.000849728
0.000849398
0.000849084
0.000848786
0.000848501
0.00084823
0.000847972
0.000847726
0.00084749
0.000847265
0.000847051
0.000846848
0.000846668
0.000851664
0.000851235
0.000850828
0.000850442
0.000850076
0.000849728
0.000849398
0.000849084
0.000848785
0.0008485
0.000848229
0.00084797
0.000847722
0.000847485
0.000847259
0.000847043
0.000846839
0.000846656
0.000851665
0.000851236
0.000850829
0.000850444
0.000850078
0.000849731
0.0008494
0.000849085
0.000848784
0.000848497
0.000848221
0.000847957
0.000847702
0.000847457
0.000847221
0.000846993
0.000846775
0.000846577
0.000851666
0.000851238
0.000850832
0.000850446
0.000850077
0.000849724
0.000849384
0.000849053
0.00084873
0.000848413
0.000848099
0.000847786
0.000847474
0.000847162
0.000846848
0.000846532
0.000846217
0.000845914
0.000851667
0.000851237
0.000850823
0.000850417
0.00085001
0.000849591
0.000849153
0.000848687
0.000848187
0.000847649
0.000847071
0.00084645
0.000845789
0.000845089
0.000844352
0.000843583
0.000842787
0.000841984
0.000851661
0.000851195
0.000850681
0.000850075
0.000849335
0.00084843
0.000847337
0.000846049
0.000844565
0.000842896
0.000841056
0.000839066
0.000836947
0.000834721
0.00083241
0.000830034
0.000827617
0.000825202
0.00085157
0.000850737
0.000849405
0.000847416
0.00084469
0.000841226
0.000837078
0.000832336
0.000827107
0.000821503
0.000815629
0.000809579
0.000803435
0.000797267
0.00079113
0.000785072
0.00077913
0.000773378
0.000850707
0.000847137
0.000840904
0.000832089
0.000821117
0.000808556
0.000794973
0.000780854
0.000766583
0.000752445
0.000738642
0.000725309
0.00071253
0.000700354
0.0006888
0.000677871
0.000667561
0.000657908
0.000844113
0.000825223
0.000798527
0.000767726
0.000735642
0.000704122
0.000674208
0.000646386
0.000620814
0.000597466
0.000576225
0.00055693
0.000539407
0.000523481
0.000508992
0.000495791
0.000483746
0.000472787
0.000803425
0.000727156
0.000652714
0.000587758
0.000532933
0.000487147
0.000448888
0.00041674
0.000389533
0.000366332
0.000346401
0.000329158
0.000314141
0.000300982
0.000289386
0.000279116
0.00026998
0.000261845
0.000625871
0.000466122
0.000370231
0.000306324
0.000260955
0.000227472
0.000201975
0.000182048
0.000166143
0.000153224
0.000142573
0.00013368
0.000126171
0.000119769
0.000114264
0.000109497
0.000105347
0.000101736
0.000254186
0.000158463
0.000118167
9.48461e-05
7.98504e-05
6.96475e-05
6.2402e-05
5.7085e-05
5.30835e-05
5.00113e-05
4.76144e-05
4.57198e-05
4.42064e-05
4.29875e-05
4.19995e-05
4.11951e-05
4.0539e-05
4.00107e-05
3.69327e-05
4.20256e-05
4.57632e-05
4.86729e-05
5.10792e-05
5.30432e-05
5.46248e-05
5.58811e-05
5.68648e-05
5.76226e-05
5.81947e-05
5.86156e-05
5.89138e-05
5.91134e-05
5.92339e-05
5.92917e-05
5.92999e-05
5.92686e-05
7.27366e-06
2.02411e-05
2.27505e-05
2.45299e-05
2.63387e-05
2.80535e-05
2.98642e-05
3.19155e-05
3.398e-05
3.6069e-05
3.8146e-05
4.01874e-05
4.21836e-05
4.41341e-05
4.60434e-05
4.79209e-05
4.97663e-05
5.15678e-05
5.33251e-05
5.50397e-05
5.67131e-05
5.83468e-05
5.9942e-05
6.15e-05
6.30222e-05
6.45098e-05
6.59638e-05
6.73852e-05
6.87752e-05
7.01347e-05
7.14645e-05
7.27655e-05
7.40386e-05
7.52845e-05
7.65039e-05
7.76977e-05
7.88665e-05
8.00111e-05
8.11322e-05
8.22305e-05
8.33066e-05
8.4361e-05
8.53944e-05
8.64072e-05
8.73999e-05
8.83728e-05
8.93265e-05
9.02612e-05
9.11773e-05
9.20751e-05
9.29549e-05
9.38169e-05
9.46613e-05
9.54882e-05
9.62976e-05
9.70897e-05
9.78645e-05
9.8622e-05
9.93619e-05
0.000100084
0.000100789
0.000101476
0.000102144
0.000102795
0.000103427
0.00010404
0.000104634
0.000105209
0.000105764
0.000106301
0.000106817
0.000107314
0.000107792
0.000108251
0.00010869
0.000109111
0.000109513
0.000109897
0.000110264
0.000110615
0.00011095
0.000111271
0.000111578
0.000111873
0.000112158
0.000112433
0.000112701
0.000112962
0.000113219
0.000113472
0.000113725
0.000113978
0.000114233
0.000114491
0.000114754
0.000115024
0.0001153
0.000115585
0.000115878
0.000116181
0.000116494
0.000116816
0.000117149
0.000117493
0.000117846
0.000118209
0.000118582
0.000118965
0.000119358
0.000119763
0.000120179
0.000120612
0.000121065
0.00012157
0.000122076
0.000122582
0.000123085
0.000123583
0.000124076
0.000124559
0.000125033
0.000125493
0.000125937
0.000126363
0.000126766
0.000127144
0.00012749
0.000127802
0.000128072
0.000128291
0.000128454
0.00012855
0.000128568
0.000128493
0.000128311
0.000128005
0.000127557
0.000126951
0.000126183
0.000125224
0.000124012
0.000122587
0.000121115
0.000118962
0.000117501
0.000116198
0.000114783
0.00011325
0.000111612
0.00010989
0.000108111
0.000106291
0.000104453
0.000102618
0.000100796
9.89979e-05
9.72358e-05
9.55185e-05
9.38502e-05
9.2234e-05
9.0674e-05
8.91718e-05
8.77272e-05
8.63413e-05
8.5013e-05
8.374e-05
8.25213e-05
8.13528e-05
8.02319e-05
7.91567e-05
7.81243e-05
7.71293e-05
7.61672e-05
7.52329e-05
7.43171e-05
7.34088e-05
7.25118e-05
7.16107e-05
7.06536e-05
6.94503e-05
1.08452e-05
6.70481e-05
0.000124459
0.000161343
0.000181769
0.000194067
0.000203074
0.000211387
0.000220355
0.000230239
0.000240974
0.000252417
0.000264421
0.000276855
0.00028961
0.000302595
0.000315758
0.000329057
0.000342456
0.00035592
0.000369417
0.00038292
0.000396403
0.000409844
0.000423221
0.000436516
0.000449712
0.000462792
0.000475744
0.000488554
0.000501212
0.000513709
0.000526034
0.000538182
0.000550147
0.000561923
0.000573506
0.000584893
0.000596083
0.000607074
0.000617865
0.000628456
0.000638848
0.000649043
0.000659042
0.000668845
0.000678457
0.000687878
0.000697111
0.000706158
0.00071502
0.000723698
0.000732194
0.000740509
0.000748642
0.000756593
0.000764361
0.000771944
0.000779339
0.000786544
0.000793554
0.000800364
0.000806967
0.000813359
0.00081953
0.000825474
0.000831182
0.000836645
0.000841855
0.000846802
0.000851477
0.000855872
0.000859978
0.000863788
0.000867295
0.000870493
0.00087338
0.000875952
0.00087821
0.000880156
0.000881794
0.000883131
0.000884177
0.000884944
0.000885447
0.000885706
0.00088574
0.000885576
0.00088524
0.000884763
0.000884176
0.000883515
0.000882817
0.00088212
0.000881462
0.000880885
0.000880429
0.000880133
0.000880038
0.00088018
0.000880598
0.000881326
0.000882396
0.000883836
0.000885669
0.000887915
0.000890586
0.000893688
0.000897214
0.000901144
0.000905434
0.000910015
0.000914683
0.000919128
0.000924032
0.000929467
0.00093545
0.000941992
0.000949102
0.000956783
0.000965039
0.000973869
0.000983266
0.000993216
0.0010037
0.00101468
0.00102611
0.00103795
0.0010501
0.00106247
0.00107491
0.00108725
0.0010993
0.00111082
0.00112151
0.00113105
0.0011391
0.00114532
0.00114937
0.00115087
0.00114951
0.00114501
0.00113688
0.00112311
0.00110347
0.0010809
0.00105641
0.00103057
0.00100382
0.000976542
0.000949076
0.000921714
0.000894699
0.000868245
0.000842518
0.000817636
0.000793684
0.000770719
0.000748771
0.000727844
0.00070793
0.000689005
0.000671038
0.000653994
0.000637829
0.000622496
0.000607946
0.000594127
0.000580988
0.00056848
0.000556553
0.000545153
0.00053422
0.000523697
0.0005135
0.000503498
0.000492812
0.000480723
0.000465286
0.000440524
1.34036e-05
0.000105085
0.000198346
0.000264086
0.00030895
0.0003406
0.000364959
0.000386047
0.000406284
0.000426884
0.000448341
0.000470777
0.000494141
0.000518318
0.000543179
0.000568603
0.000594485
0.000620735
0.000647271
0.00067402
0.000700917
0.000727902
0.000754921
0.000781926
0.000808872
0.000835718
0.000862429
0.00088897
0.000915311
0.000941425
0.000967287
0.000992874
0.00101817
0.00104315
0.00106781
0.00109212
0.00111608
0.00113969
0.00116292
0.00118578
0.00120826
0.00123036
0.00125208
0.0012734
0.00129435
0.0013149
0.00133508
0.00135486
0.00137427
0.0013933
0.00141195
0.00143022
0.00144812
0.00146563
0.00148277
0.00149953
0.00151591
0.0015319
0.0015475
0.00156269
0.00157748
0.00159186
0.0016058
0.00161931
0.00163236
0.00164494
0.00165705
0.00166865
0.00167974
0.00169029
0.0017003
0.00170974
0.0017186
0.00172687
0.00173454
0.00174158
0.00174801
0.00175381
0.00175897
0.00176352
0.00176744
0.00177076
0.00177349
0.00177564
0.00177725
0.00177835
0.00177897
0.00177916
0.00177895
0.0017784
0.00177756
0.00177649
0.00177525
0.00177389
0.00177249
0.00177109
0.00176977
0.00176859
0.0017676
0.00176686
0.00176643
0.00176635
0.00176668
0.00176744
0.00176867
0.00177041
0.00177266
0.00177545
0.00177876
0.00178261
0.00178696
0.00179182
0.00179657
0.00180178
0.00180776
0.0018146
0.00182235
0.00183104
0.00184071
0.0018514
0.00186313
0.00187596
0.00188989
0.00190496
0.00192116
0.0019385
0.00195694
0.00197643
0.00199688
0.00201814
0.00204
0.00206218
0.00208429
0.00210587
0.00212633
0.002145
0.00216112
0.00217392
0.0021826
0.00218637
0.00218468
0.00217688
0.00216216
0.00213952
0.0021089
0.00207246
0.00203168
0.00198763
0.00194123
0.00189329
0.00184454
0.00179564
0.00174711
0.00169942
0.00165292
0.00160789
0.0015645
0.0015229
0.00148314
0.00144526
0.00140924
0.00137505
0.00134262
0.00131187
0.00128274
0.00125511
0.0012289
0.00120402
0.00118035
0.00115781
0.00113628
0.00111566
0.00109585
0.0010767
0.00105805
0.00103963
0.00102029
0.000998782
0.000972176
0.00093458
1.52717e-05
0.000132106
0.000253842
0.000345668
0.000412938
0.000463418
0.000503507
0.000537882
0.000569666
0.000600749
0.000632154
0.000664357
0.000697518
0.000731632
0.000766618
0.000802365
0.000838754
0.000875673
0.000913015
0.000950681
0.000988583
0.00102664
0.00106478
0.00110293
0.00114103
0.00117902
0.00121687
0.0012545
0.0012919
0.001329
0.00136579
0.00140223
0.00143828
0.00147393
0.00150915
0.00154391
0.00157821
0.00161202
0.00164533
0.00167814
0.00171042
0.00174217
0.00177339
0.00180408
0.00183422
0.00186382
0.00189287
0.00192138
0.00194934
0.00197675
0.00200362
0.00202994
0.00205572
0.00208094
0.00210562
0.00212974
0.0021533
0.0021763
0.00219872
0.00222057
0.00224183
0.00226249
0.00228253
0.00230194
0.0023207
0.00233881
0.00235623
0.00237295
0.00238894
0.0024042
0.00241869
0.0024324
0.00244531
0.0024574
0.00246866
0.00247907
0.00248863
0.00249732
0.00250514
0.0025121
0.0025182
0.00252346
0.00252789
0.00253151
0.00253436
0.00253646
0.00253786
0.0025386
0.00253873
0.0025383
0.00253738
0.00253603
0.00253432
0.0025323
0.00253004
0.00252762
0.00252511
0.00252256
0.00252004
0.00251762
0.00251534
0.00251327
0.00251146
0.00250993
0.00250875
0.00250793
0.00250752
0.00250753
0.00250798
0.0025089
0.00251028
0.00251214
0.00251416
0.00251683
0.00252036
0.00252485
0.00253038
0.00253702
0.00254486
0.00255398
0.00256447
0.00257641
0.0025899
0.00260503
0.00262189
0.00264053
0.00266103
0.00268338
0.00270758
0.00273353
0.00276105
0.00278985
0.00281949
0.00284939
0.00287877
0.00290668
0.00293201
0.00295359
0.00297015
0.00298037
0.00298315
0.00297761
0.00296287
0.00293841
0.0029045
0.00286259
0.00281415
0.00276051
0.00270294
0.00264262
0.00258063
0.00251792
0.00245533
0.00239352
0.00233306
0.00227435
0.00221769
0.00216329
0.00211126
0.00206165
0.00201447
0.00196966
0.00192717
0.00188688
0.00184869
0.00181249
0.00177813
0.0017455
0.00171446
0.00168488
0.00165662
0.00162955
0.0016035
0.00157833
0.00155382
0.00152961
0.00150465
0.00147765
0.00144597
0.00140621
1.69795e-05
0.000150017
0.000296569
0.000411908
0.00049975
0.000567849
0.000622913
0.000670046
0.000712854
0.000753719
0.000794099
0.000834808
0.000876249
0.000918574
0.000961793
0.00100584
0.00105063
0.00109603
0.00114195
0.00118826
0.00123488
0.0012817
0.00132864
0.00137562
0.00142257
0.00146941
0.0015161
0.00156256
0.00160875
0.00165462
0.00170013
0.00174524
0.0017899
0.0018341
0.00187779
0.00192095
0.00196355
0.00200558
0.00204702
0.00208784
0.00212804
0.0021676
0.00220652
0.00224477
0.00228237
0.00231929
0.00235555
0.00239113
0.00242603
0.00246025
0.0024938
0.00252666
0.00255883
0.00259033
0.00262113
0.00265124
0.00268065
0.00270936
0.00273736
0.00276464
0.00279119
0.002817
0.00284206
0.00286634
0.00288984
0.00291252
0.00293439
0.0029554
0.00297555
0.0029948
0.00301314
0.00303055
0.00304699
0.00306245
0.00307692
0.00309036
0.00310278
0.00311416
0.00312449
0.00313376
0.00314199
0.00314918
0.00315533
0.00316047
0.00316462
0.00316781
0.00317007
0.00317145
0.00317199
0.00317174
0.00317075
0.00316909
0.00316681
0.00316397
0.00316065
0.0031569
0.00315279
0.00314837
0.00314372
0.00313889
0.00313393
0.0031289
0.00312385
0.00311882
0.00311385
0.00310898
0.00310426
0.00309971
0.00309538
0.0030913
0.00308749
0.00308394
0.00308062
0.00307789
0.00307592
0.00307484
0.00307477
0.00307582
0.00307813
0.00308182
0.00308706
0.00309401
0.00310285
0.00311376
0.00312695
0.0031426
0.0031609
0.00318201
0.00320606
0.0032331
0.00326309
0.00329585
0.00333101
0.00336798
0.00340593
0.00344369
0.00347991
0.00351302
0.00354082
0.00356162
0.00357391
0.0035764
0.00356804
0.00354833
0.0035175
0.00347661
0.00342703
0.00337026
0.00330784
0.00324127
0.00317194
0.00310111
0.0030299
0.00295919
0.00288973
0.00282208
0.00275663
0.00269369
0.00263341
0.00257587
0.00252111
0.00246907
0.00241969
0.00237285
0.00232842
0.00228628
0.00224627
0.00220825
0.00217206
0.00213754
0.00210456
0.00207294
0.00204253
0.00201316
0.00198459
0.00195649
0.00192793
0.00189782
0.00186418
0.00182555
1.83937e-05
0.000162374
0.000329117
0.000464973
0.00057136
0.000655665
0.000724697
0.00078382
0.000836971
0.000886892
0.000935384
0.000983562
0.00103206
0.00108121
0.00113114
0.00118186
0.00123331
0.00128542
0.00133807
0.00139117
0.00144461
0.00149829
0.00155212
0.00160602
0.0016599
0.00171368
0.00176731
0.00182071
0.00187383
0.00192662
0.00197901
0.00203098
0.00208246
0.00213344
0.00218386
0.00223371
0.00228294
0.00233153
0.00237946
0.00242671
0.00247326
0.00251908
0.00256418
0.00260854
0.00265214
0.00269499
0.00273707
0.00277837
0.0028189
0.00285866
0.00289763
0.00293582
0.00297323
0.00300985
0.00304568
0.00308072
0.00311496
0.0031484
0.00318103
0.00321285
0.00324385
0.003274
0.00330331
0.00333175
0.00335932
0.00338598
0.00341172
0.00343652
0.00346036
0.0034832
0.00350503
0.00352582
0.00354554
0.00356417
0.00358169
0.00359806
0.00361327
0.0036273
0.00364014
0.00365177
0.00366219
0.00367138
0.00367936
0.00368614
0.00369171
0.0036961
0.00369934
0.00370145
0.00370247
0.00370244
0.00370139
0.00369938
0.00369646
0.00369267
0.00368808
0.00368273
0.00367668
0.00366999
0.00366271
0.00365488
0.00364657
0.00363781
0.00362866
0.00361915
0.00360933
0.00359924
0.00358892
0.0035784
0.00356774
0.00355699
0.0035462
0.00353523
0.00352438
0.00351387
0.00350389
0.00349458
0.00348609
0.00347858
0.00347223
0.00346724
0.00346382
0.00346224
0.00346276
0.00346569
0.00347137
0.00348013
0.00349236
0.0035084
0.00352861
0.00355328
0.00358262
0.00361667
0.00365529
0.00369804
0.00374413
0.00379227
0.00384107
0.00388767
0.00392993
0.00396561
0.00399255
0.00400886
0.00401305
0.00400425
0.00398243
0.00394831
0.00390316
0.0038486
0.00378638
0.00371832
0.00364615
0.00357146
0.00349562
0.0034198
0.00334492
0.0032717
0.00320068
0.00313221
0.00306654
0.00300378
0.00294398
0.00288711
0.00283309
0.00278182
0.00273315
0.00268695
0.00264305
0.0026013
0.00256152
0.00252356
0.00248726
0.00245245
0.00241898
0.00238666
0.0023553
0.00232458
0.00229374
0.00226192
0.00222774
0.00219088
1.95245e-05
0.000170791
0.000353313
0.000506427
0.000629051
0.000727903
0.000809686
0.000879862
0.000942574
0.00100081
0.00105664
0.00111141
0.00116599
0.00122085
0.00127627
0.00133234
0.00138907
0.00144642
0.00150432
0.00156267
0.00162137
0.00168034
0.00173948
0.00179871
0.00185793
0.00191707
0.00197606
0.00203483
0.00209332
0.00215147
0.00220922
0.00226653
0.00232335
0.00237963
0.00243533
0.00249042
0.00254486
0.00259863
0.00265169
0.00270402
0.0027556
0.00280641
0.00285644
0.00290566
0.00295407
0.00300166
0.00304842
0.00309434
0.00313943
0.00318366
0.00322705
0.00326959
0.00331128
0.00335212
0.00339211
0.00343124
0.00346952
0.00350693
0.00354349
0.00357917
0.00361397
0.00364788
0.0036809
0.003713
0.00374418
0.00377441
0.00380367
0.00383194
0.00385919
0.0038854
0.00391055
0.00393459
0.0039575
0.00397925
0.0039998
0.00401913
0.0040372
0.00405398
0.00406945
0.00408358
0.00409634
0.00410773
0.00411773
0.00412633
0.00413353
0.00413932
0.00414372
0.00414673
0.00414838
0.00414869
0.00414768
0.00414538
0.00414183
0.00413707
0.00413114
0.00412408
0.00411592
0.00410672
0.00409651
0.00408534
0.00407325
0.00406027
0.00404645
0.00403182
0.00401641
0.00400027
0.00398343
0.00396593
0.00394781
0.00392913
0.00390994
0.00389017
0.00387014
0.00385008
0.00383016
0.00381055
0.00379144
0.00377302
0.00375552
0.00373918
0.00372429
0.00371118
0.00370023
0.00369186
0.00368655
0.00368483
0.00368726
0.00369447
0.00370707
0.0037257
0.00375091
0.00378314
0.00382258
0.00386921
0.0039224
0.00398082
0.00404222
0.00410415
0.00416393
0.00421865
0.00426533
0.00430123
0.00432408
0.00433237
0.0043255
0.00430379
0.00426837
0.00422088
0.00416333
0.00409785
0.00402654
0.00395135
0.003874
0.00379592
0.00371827
0.00364197
0.00356768
0.00349588
0.00342687
0.00336082
0.0032978
0.00323781
0.00318077
0.00312658
0.0030751
0.00302618
0.00297966
0.00293537
0.00289313
0.0028528
0.00281419
0.00277716
0.00274155
0.0027072
0.00267392
0.00264145
0.00260922
0.00257648
0.00254236
0.00250711
2.04074e-05
0.000176138
0.000370434
0.00053755
0.000673967
0.000785539
0.000878688
0.00095884
0.00103023
0.001096
0.0011584
0.00121899
0.00127879
0.00133844
0.00139834
0.00145868
0.00151955
0.00158094
0.00164283
0.00170514
0.00176781
0.00183073
0.00189384
0.00195704
0.00202024
0.00208338
0.00214638
0.00220917
0.00227169
0.00233386
0.00239565
0.00245698
0.00251782
0.00257812
0.00263783
0.00269691
0.00275533
0.00281305
0.00287005
0.00292629
0.00298175
0.00303641
0.00309026
0.00314327
0.00319543
0.00324673
0.00329717
0.00334674
0.00339542
0.00344323
0.00349015
0.00353619
0.00358135
0.00362563
0.00366902
0.00371154
0.00375317
0.00379392
0.00383379
0.00387278
0.00391088
0.00394807
0.00398437
0.00401974
0.00405419
0.00408768
0.00412021
0.00415174
0.00418225
0.00421171
0.00424009
0.00426736
0.00429346
0.00431838
0.00434206
0.00436446
0.00438554
0.00440525
0.00442356
0.00444043
0.0044558
0.00446966
0.00448196
0.00449268
0.0045018
0.00450929
0.00451514
0.00451935
0.00452191
0.00452281
0.00452208
0.00451972
0.00451575
0.00451018
0.00450305
0.00449437
0.00448417
0.00447248
0.00445933
0.00444475
0.00442876
0.0044114
0.00439269
0.00437266
0.00435133
0.00432874
0.00430492
0.00427989
0.0042537
0.00422639
0.004198
0.00416854
0.00413834
0.0041076
0.00407651
0.00404526
0.00401405
0.0039831
0.00395268
0.00392306
0.00389458
0.00386764
0.00384269
0.00382025
0.00380095
0.00378549
0.00377466
0.0037693
0.0037704
0.00377896
0.003796
0.00382254
0.00385919
0.00390675
0.00396425
0.00403068
0.0041042
0.0041823
0.00426184
0.00433916
0.00441032
0.00447144
0.00451915
0.00455087
0.00456515
0.00456172
0.0045414
0.00450583
0.00445723
0.00439809
0.00433093
0.00425814
0.00418182
0.00410377
0.00402543
0.00394793
0.00387211
0.00379858
0.00372772
0.00365978
0.00359486
0.00353298
0.00347408
0.00341807
0.00336482
0.00331416
0.00326593
0.00321997
0.00317611
0.00313417
0.00309401
0.00305546
0.00301839
0.00298264
0.00294807
0.00291446
0.00288142
0.0028482
0.00281437
0.0027804
2.10748e-05
0.000178976
0.000381469
0.000559454
0.000707194
0.000829573
0.000932596
0.00102154
0.00110064
0.0011731
0.00124131
0.00130696
0.00137121
0.00143484
0.00149835
0.00156203
0.00162604
0.00169044
0.00175524
0.00182041
0.00188589
0.00195161
0.0020175
0.00208347
0.00214946
0.00221539
0.00228118
0.00234677
0.0024121
0.00247709
0.0025417
0.00260587
0.00266954
0.00273267
0.00279522
0.00285714
0.00291839
0.00297894
0.00303876
0.00309781
0.00315608
0.00321354
0.00327016
0.00332594
0.00338086
0.00343491
0.00348809
0.00354037
0.00359177
0.00364229
0.00369191
0.00374065
0.0037885
0.00383547
0.00388157
0.0039268
0.00397116
0.00401466
0.00405729
0.00409907
0.00413999
0.00418004
0.00421922
0.00425753
0.00429494
0.00433145
0.00436703
0.00440166
0.00443532
0.00446796
0.00449956
0.00453006
0.00455944
0.00458763
0.00461459
0.00464025
0.00466457
0.00468749
0.00470894
0.00472886
0.0047472
0.00476389
0.0047789
0.00479215
0.00480361
0.00481323
0.00482097
0.00482681
0.00483071
0.00483265
0.00483262
0.00483061
0.00482661
0.00482062
0.00481265
0.00480269
0.00479078
0.0047769
0.00476109
0.00474334
0.00472369
0.00470213
0.0046787
0.0046534
0.00462626
0.00459728
0.00456648
0.0045339
0.00449956
0.00446348
0.00442571
0.00438632
0.00434561
0.0043038
0.00426106
0.0042176
0.00417363
0.00412938
0.00408513
0.00404118
0.00399789
0.00395569
0.00391507
0.00387663
0.00384108
0.0038093
0.00378222
0.00376095
0.00374677
0.00374111
0.00374548
0.00376169
0.0037908
0.00383382
0.00389094
0.00396174
0.00404493
0.00413818
0.00423811
0.00434035
0.00443988
0.00453143
0.00461009
0.00467179
0.00471379
0.0047349
0.0047354
0.00471681
0.00468153
0.00463245
0.00457259
0.00450486
0.00443184
0.00435576
0.00427842
0.00420122
0.00412522
0.00405118
0.0039796
0.0039108
0.00384495
0.00378209
0.00372219
0.00366516
0.00361089
0.00355921
0.00350996
0.00346297
0.00341809
0.00337513
0.00333396
0.00329442
0.00325638
0.00321972
0.00318431
0.00314998
0.00311643
0.00308304
0.00304957
0.00301655
2.15521e-05
0.000179732
0.000387253
0.00057315
0.000729784
0.00086103
0.000972379
0.00106887
0.00115463
0.0012329
0.00130612
0.00137607
0.00144402
0.00151085
0.00157717
0.00164335
0.00170962
0.0017761
0.00184285
0.00190987
0.00197712
0.00204457
0.00211215
0.0021798
0.00224745
0.00231503
0.00238248
0.00244973
0.00251671
0.00258337
0.00264965
0.0027155
0.00278086
0.00284568
0.00290993
0.00297355
0.00303652
0.00309879
0.00316033
0.00322111
0.00328112
0.00334031
0.00339869
0.00345622
0.00351291
0.00356873
0.00362369
0.00367777
0.00373099
0.00378333
0.00383481
0.00388543
0.0039352
0.00398412
0.00403221
0.00407947
0.00412592
0.00417156
0.0042164
0.00426045
0.0043037
0.00434618
0.00438786
0.00442876
0.00446885
0.00450813
0.00454658
0.00458417
0.00462087
0.00465665
0.00469148
0.00472529
0.00475804
0.00478967
0.00482011
0.0048493
0.00487716
0.00490362
0.00492859
0.00495199
0.00497375
0.00499377
0.00501198
0.0050283
0.00504266
0.00505498
0.00506521
0.00507327
0.00507912
0.00508271
0.005084
0.00508294
0.00507953
0.00507372
0.00506551
0.00505488
0.00504183
0.00502634
0.00500843
0.00498808
0.00496529
0.00494008
0.00491245
0.00488239
0.00484991
0.00481502
0.00477773
0.00473804
0.00469596
0.00465154
0.00460475
0.00455579
0.00450491
0.00445231
0.00439818
0.00434271
0.00428614
0.00422868
0.0041706
0.00411222
0.00405389
0.00399604
0.00393917
0.00388389
0.00383092
0.00378128
0.00373602
0.00369636
0.00366381
0.00364025
0.00362761
0.00362797
0.00364329
0.0036754
0.00372567
0.00379481
0.0038825
0.00398712
0.00410546
0.00423276
0.00436293
0.00448911
0.00460439
0.00470265
0.00477929
0.00483167
0.0048592
0.00486305
0.00484574
0.00481059
0.00476121
0.00470112
0.00463354
0.00456119
0.00448633
0.0044107
0.00433562
0.00426204
0.00419062
0.00412177
0.00405572
0.00399256
0.0039323
0.00387486
0.00382013
0.00376797
0.00371821
0.00367068
0.00362524
0.00358171
0.00353994
0.00349981
0.00346119
0.00342398
0.00338805
0.00335329
0.00331946
0.00328607
0.00325295
0.00322061
2.18613e-05
0.000178764
0.000388529
0.00057959
0.000742767
0.000880947
0.000999042
0.00110177
0.00119311
0.00127625
0.00135363
0.00142709
0.00149798
0.00156727
0.00163561
0.00170348
0.00177116
0.00183883
0.0019066
0.0019745
0.00204253
0.00211068
0.00217891
0.00224715
0.00231537
0.00238349
0.00245147
0.00251923
0.00258673
0.0026539
0.00272069
0.00278704
0.00285292
0.00291828
0.00298306
0.00304723
0.00311075
0.00317359
0.00323572
0.00329711
0.00335773
0.00341757
0.00347661
0.00353484
0.00359224
0.00364881
0.00370455
0.00375946
0.00381354
0.00386679
0.00391924
0.00397088
0.00402174
0.00407182
0.00412114
0.00416972
0.00421757
0.00426472
0.00431117
0.00435694
0.00440204
0.00444648
0.00449027
0.0045334
0.00457587
0.00461767
0.00465879
0.00469921
0.00473888
0.00477779
0.00481587
0.00485309
0.00488937
0.00492465
0.00495885
0.00499188
0.00502366
0.00505408
0.00508305
0.00511045
0.00513618
0.00516013
0.00518219
0.00520225
0.00522021
0.00523596
0.0052494
0.00526045
0.00526903
0.00527505
0.00527845
0.00527916
0.00527714
0.00527232
0.00526469
0.0052542
0.00524082
0.00522454
0.00520534
0.00518319
0.0051581
0.00513005
0.00509903
0.00506503
0.00502804
0.00498807
0.0049451
0.00489913
0.00485016
0.00479821
0.00474326
0.00468558
0.00462539
0.00456287
0.00449819
0.00443157
0.00436323
0.00429339
0.0042223
0.00415026
0.00407761
0.00400475
0.00393216
0.0038604
0.00379005
0.00372239
0.00365844
0.00359944
0.00354696
0.00350295
0.00346961
0.00344941
0.00344505
0.00345932
0.00349491
0.00355404
0.00363802
0.00374667
0.00387781
0.00402694
0.00418729
0.00435035
0.00450682
0.00464786
0.00476621
0.00485706
0.00491836
0.00495063
0.00495636
0.00493929
0.00490372
0.00485394
0.00479389
0.00472698
0.00465596
0.00458303
0.00450983
0.00443754
0.004367
0.00429874
0.00423307
0.00417016
0.00411003
0.00405265
0.00399791
0.00394568
0.0038958
0.00384812
0.00380248
0.00375871
0.00371669
0.00367628
0.00363737
0.00359987
0.00356368
0.0035287
0.00349476
0.00346147
0.00342867
0.00339683
2.2019e-05
0.000176381
0.000385972
0.000579676
0.000747145
0.000890348
0.00101359
0.00112121
0.00121698
0.00130398
0.00138462
0.00146075
0.00153377
0.00160469
0.00167425
0.00174296
0.00181118
0.00187914
0.00194698
0.00201479
0.00208259
0.00215039
0.00221817
0.00228591
0.00235355
0.00242106
0.00248839
0.00255547
0.00262227
0.00268873
0.0027548
0.00282044
0.00288559
0.00295023
0.0030143
0.00307778
0.00314062
0.0032028
0.00326429
0.00332507
0.00338512
0.00344442
0.00350295
0.00356072
0.00361771
0.00367393
0.00372937
0.00378405
0.00383798
0.00389116
0.00394362
0.00399537
0.00404643
0.00409682
0.00414658
0.00419572
0.00424426
0.00429225
0.00433969
0.00438661
0.00443303
0.00447897
0.00452444
0.00456946