/*--------------------------------*- C++ -*----------------------------------*\
| =========                 |                                                 |
| \\      /  F ield         | OpenFOAM: The Open Source CFD Toolbox           |
|  \\    /   O peration     | Version:  2.2.x                                 |
|   \\  /    A nd           | Web:      www.OpenFOAM.org                      |
|    \\/     M anipulation  |                                                 |
\*---------------------------------------------------------------------------*/
FoamFile
{
    version     2.0;
    format      ascii;
    class       volScalarField;
    location    "350";
    object      p;
}
// * * * * * * * * * * * * * * * * * * * * * * * * * * * * * * * * * * * * * //

dimensions      [0 2 -2 0 0 0 0];

internalField   nonuniform List<scalar> 
12225
(
-1.83613
-4.54105
-5.38915
-5.62906
-5.7935
-5.93519
-6.04961
-6.14483
-6.22933
-6.3074
-6.38103
-6.45154
-6.52
-6.58724
-6.65382
-6.71919
-6.78071
-6.75475
-5.62461
-5.9796
-6.09082
-6.04579
-6.0531
-6.10245
-6.1614
-6.22175
-6.28338
-6.34601
-6.40895
-6.4719
-6.53489
-6.59813
-6.66188
-6.72654
-6.79731
-6.91927
-5.4717
-5.31683
-5.51898
-5.654
-5.77774
-5.90385
-6.01699
-6.11571
-6.20452
-6.28658
-6.3636
-6.43684
-6.50743
-6.57636
-6.64464
-6.71392
-6.78965
-6.89055
-5.38721
-5.37627
-5.64917
-5.81783
-5.93002
-6.03155
-6.12154
-6.20052
-6.27284
-6.34136
-6.40739
-6.47174
-6.5351
-6.59816
-6.66175
-6.72743
-6.79906
-6.88521
-5.42352
-5.4727
-5.68533
-5.8223
-5.91539
-6.00506
-6.09044
-6.16915
-6.24308
-6.31395
-6.38252
-6.44928
-6.51478
-6.57961
-6.64454
-6.7108
-6.78052
-6.85577
-5.49751
-5.5481
-5.70885
-5.83279
-5.92604
-6.01546
-6.10088
-6.17991
-6.25381
-6.32417
-6.39187
-6.45749
-6.52161
-6.58482
-6.64776
-6.71122
-6.77608
-6.84182
-5.56287
-5.60503
-5.7323
-5.8465
-5.93808
-6.02419
-6.10633
-6.18298
-6.25503
-6.3238
-6.39008
-6.45438
-6.51718
-6.5789
-6.63996
-6.70066
-6.76105
-6.81948
-5.61411
-5.65096
-5.75768
-5.86206
-5.94994
-6.03253
-6.11172
-6.1864
-6.25708
-6.32472
-6.38996
-6.45322
-6.51486
-6.57519
-6.63441
-6.69259
-6.74942
-6.80305
-5.65753
-5.69067
-5.78163
-5.87675
-5.96062
-6.03994
-6.11643
-6.18922
-6.25849
-6.32493
-6.38904
-6.45117
-6.51157
-6.57044
-6.62786
-6.68371
-6.73754
-6.78762
-5.70267
-5.73207
-5.80848
-5.89385
-5.97293
-6.04855
-6.12197
-6.19247
-6.25998
-6.32491
-6.38761
-6.44833
-6.50722
-6.56438
-6.61976
-6.67314
-6.72403
-6.77096
-5.74871
-5.77426
-5.83792
-5.91348
-5.98701
-6.05843
-6.12836
-6.19615
-6.26151
-6.32459
-6.38557
-6.44458
-6.50167
-6.55684
-6.60998
-6.6608
-6.70887
-6.75302
-5.79468
-5.8165
-5.86933
-5.93538
-6.00277
-6.06955
-6.13561
-6.20029
-6.26312
-6.32399
-6.38291
-6.4399
-6.49492
-6.54789
-6.59863
-6.64689
-6.6923
-6.73403
-5.83942
-5.85782
-5.90166
-5.95887
-6.01981
-6.08162
-6.14352
-6.20475
-6.26468
-6.32299
-6.37955
-6.43425
-6.48695
-6.53754
-6.58582
-6.63159
-6.67456
-6.71414
-5.8815
-5.89693
-5.93347
-5.9828
-6.03738
-6.09407
-6.15165
-6.20918
-6.26592
-6.32141
-6.37534
-6.42752
-6.47776
-6.52588
-6.57172
-6.6151
-6.65584
-6.69353
-5.91911
-5.93209
-5.96286
-6.0055
-6.05418
-6.10589
-6.15917
-6.21293
-6.26636
-6.31885
-6.37002
-6.41957
-6.46728
-6.51295
-6.55644
-6.59761
-6.63634
-6.67234
-5.94986
-5.96096
-5.98735
-6.02467
-6.06829
-6.11553
-6.16481
-6.215
-6.2652
-6.31476
-6.36319
-6.41016
-6.45542
-6.49877
-6.54007
-6.57922
-6.61615
-6.65064
-5.97048
-5.98028
-6.00365
-6.03717
-6.07698
-6.12067
-6.16668
-6.21386
-6.26126
-6.30821
-6.3542
-6.39887
-6.44195
-6.48326
-6.52266
-6.5601
-6.5955
-6.62872
-5.97592
-5.98509
-6.00705
-6.03874
-6.07663
-6.11842
-6.16256
-6.2079
-6.25353
-6.29875
-6.34305
-6.38609
-6.42759
-6.4674
-6.50541
-6.54154
-6.57576
-6.60793
-5.96589
-5.97507
-5.99717
-6.02909
-6.06715
-6.10891
-6.15284
-6.1978
-6.24292
-6.28753
-6.33115
-6.37344
-6.41419
-6.45323
-6.49049
-6.52591
-6.55949
-6.59109
-5.94477
-5.95437
-5.97781
-6.01166
-6.05157
-6.09477
-6.13974
-6.18543
-6.23101
-6.27584
-6.31949
-6.36169
-6.40223
-6.44099
-6.47791
-6.51296
-6.54613
-6.57732
-5.91576
-5.92592
-5.95173
-5.98914
-6.03233
-6.07806
-6.12498
-6.17221
-6.21894
-6.26462
-6.30887
-6.35147
-6.39227
-6.43119
-6.46817
-6.50323
-6.53639
-6.56755
-5.88121
-5.89153
-5.9208
-5.96356
-6.0112
-6.06009
-6.10948
-6.15869
-6.20693
-6.25369
-6.29872
-6.34187
-6.38304
-6.42218
-6.45926
-6.4943
-6.52731
-6.5582
-5.84316
-5.8522
-5.88643
-5.93689
-5.99
-6.04251
-6.09485
-6.14648
-6.1966
-6.24482
-6.29101
-6.33509
-6.377
-6.41672
-6.45424
-6.4896
-6.52285
-6.55397
-5.80351
-5.80816
-5.84945
-5.90965
-5.96827
-6.02431
-6.07959
-6.13338
-6.18492
-6.23411
-6.28102
-6.32564
-6.36796
-6.40799
-6.44573
-6.48119
-6.51435
-6.54497
-5.7635
-5.75972
-5.81498
-5.88721
-5.9503
-6.01019
-6.06972
-6.127
-6.18112
-6.23227
-6.28068
-6.32644
-6.36961
-6.41025
-6.44843
-6.48417
-6.5175
-6.5484
-5.72049
-5.69114
-5.7764
-5.86424
-5.92641
-5.98459
-6.04373
-6.10089
-6.15519
-6.20694
-6.25631
-6.30324
-6.34772
-6.38974
-6.42932
-6.46639
-6.50075
-6.53171
-5.71441
-5.5995
-5.73884
-5.86896
-5.95141
-6.02167
-6.08655
-6.14477
-6.19766
-6.24689
-6.29323
-6.33698
-6.37834
-6.41746
-6.45444
-6.48926
-6.5218
-6.55173
-5.81175
-5.48045
-5.55582
-5.65749
-5.7482
-5.84329
-5.93364
-6.01441
-6.08698
-6.15318
-6.21394
-6.26987
-6.3215
-6.36932
-6.41373
-6.45502
-6.49316
-6.52745
-6.11051
-6.17547
-6.20773
-6.13381
-6.09962
-6.11098
-6.13935
-6.17333
-6.21083
-6.2506
-6.29122
-6.33165
-6.37127
-6.40975
-6.44694
-6.48287
-6.5176
-6.55231
-2.41617
-4.60987
-5.4074
-5.62677
-5.76054
-5.87901
-5.97588
-6.05519
-6.1239
-6.18577
-6.24232
-6.29441
-6.34268
-6.38767
-6.42987
-6.46981
-6.5082
-6.54984
-7.56196
-7.56282
-7.56576
-7.56953
-7.57325
-7.57708
-7.58149
-7.58742
-7.59527
-7.6048
-7.61608
-7.62916
-7.64406
-7.66076
-7.67922
-7.69934
-7.72097
-7.74397
-7.76822
-7.79357
-7.8199
-7.84704
-7.87485
-7.90319
-7.93192
-7.9609
-7.99
-8.01909
-8.04805
-8.07677
-8.10515
-8.1331
-8.16051
-8.18732
-8.21344
-8.23881
-8.26336
-8.28702
-8.30975
-8.33149
-8.35217
-8.37176
-8.39021
-8.40748
-8.42352
-8.43829
-8.45176
-8.46388
-8.47461
-8.48393
-8.49179
-8.49815
-8.50299
-8.50626
-8.50793
-8.50796
-8.50634
-8.50303
-8.49801
-8.49126
-8.48279
-8.47257
-8.46061
-8.44691
-8.43148
-8.41433
-8.39549
-8.37502
-8.35295
-8.32935
-8.30429
-8.27783
-8.25007
-8.22108
-8.19097
-8.15984
-8.12782
-8.09501
-8.06154
-8.02754
-7.99312
-7.95839
-7.92346
-7.8884
-7.85329
-7.81816
-7.78302
-7.74787
-7.71264
-7.67723
-7.6415
-7.60522
-7.56814
-7.52989
-7.49005
-7.44809
-7.40343
-7.35536
-7.30308
-7.24569
-7.18217
-7.11139
-7.03214
-6.94308
-6.84277
-6.7296
-6.60187
-6.45787
-6.29592
-6.11427
-5.91087
-5.68334
-5.42932
-5.14679
-4.83393
-4.48902
-4.11048
-3.69689
-3.24706
-2.76011
-2.23546
-1.67294
-1.07279
-0.435755
0.236855
0.943158
1.68066
2.44624
3.23612
4.0459
4.87054
5.70445
6.54153
7.37536
8.19942
9.0071
9.79185
10.5473
11.2674
11.9467
12.5802
13.1646
13.7005
14.1947
14.6439
15.04
15.385
15.6818
15.9338
16.1448
16.3188
16.4599
16.572
16.6592
16.7251
16.7731
16.8061
16.8268
16.8376
16.8405
16.8371
16.8289
16.817
16.8025
16.7862
16.7686
16.7505
16.7321
16.7141
16.6967
16.6806
16.6661
16.6539
16.645
16.6409
16.6436
16.6573
16.6894
16.76
16.8855
-7.55533
-7.55783
-7.56101
-7.56367
-7.56512
-7.56579
-7.56686
-7.56944
-7.57419
-7.58112
-7.59017
-7.6013
-7.61446
-7.6296
-7.64664
-7.66548
-7.68598
-7.70798
-7.73134
-7.75593
-7.78158
-7.80813
-7.83545
-7.86337
-7.89174
-7.92043
-7.9493
-7.97821
-8.00705
-8.03569
-8.06402
-8.09195
-8.11938
-8.14623
-8.17241
-8.19786
-8.2225
-8.24627
-8.26911
-8.29096
-8.31178
-8.3315
-8.35009
-8.36751
-8.38369
-8.39862
-8.41223
-8.4245
-8.43539
-8.44486
-8.45287
-8.45938
-8.46436
-8.46778
-8.46959
-8.46976
-8.46827
-8.46509
-8.46018
-8.45354
-8.44514
-8.43499
-8.42307
-8.40937
-8.39392
-8.37672
-8.35781
-8.33721
-8.31498
-8.29118
-8.26586
-8.2391
-8.21098
-8.1816
-8.15104
-8.11942
-8.08686
-8.05347
-8.0194
-7.98476
-7.94968
-7.91429
-7.87869
-7.84299
-7.80726
-7.77156
-7.73592
-7.70035
-7.6648
-7.62919
-7.59339
-7.5572
-7.52038
-7.48259
-7.44343
-7.40238
-7.35889
-7.31226
-7.26173
-7.20639
-7.14524
-7.07718
-7.00101
-6.9154
-6.81893
-6.71001
-6.58694
-6.44806
-6.29176
-6.11633
-5.91964
-5.69909
-5.45236
-5.1776
-4.873
-4.53684
-4.16753
-3.76365
-3.32401
-2.8477
-2.33411
-1.78304
-1.19468
-0.569712
0.0906502
0.784621
1.50982
2.26326
3.04134
3.83982
4.65386
5.47815
6.30688
7.1339
7.95293
8.75745
9.54074
10.2962
11.0182
11.7022
12.3451
12.9442
13.4955
13.9985
14.4532
14.857
15.2112
15.5182
15.7811
16.0031
16.1882
16.3401
16.4627
16.5598
16.635
16.6916
16.7326
16.7607
16.7782
16.7871
16.7891
16.7858
16.7783
16.7677
16.7549
16.7405
16.7251
16.7093
16.6935
16.6782
16.6638
16.651
16.6404
16.633
16.6303
16.6344
16.6496
16.6822
16.7506
16.8483
-7.53452
-7.54136
-7.54928
-7.55383
-7.55516
-7.55531
-7.55581
-7.55767
-7.56143
-7.56722
-7.57509
-7.58502
-7.59696
-7.61085
-7.62661
-7.64414
-7.66332
-7.68403
-7.70612
-7.72947
-7.75392
-7.77933
-7.80555
-7.83243
-7.85982
-7.88759
-7.9156
-7.94371
-7.97181
-7.99977
-8.02749
-8.05486
-8.08179
-8.10818
-8.13396
-8.15905
-8.18337
-8.20686
-8.22945
-8.2511
-8.27173
-8.29131
-8.30978
-8.32709
-8.3432
-8.35806
-8.37164
-8.38389
-8.39477
-8.40424
-8.41226
-8.4188
-8.42381
-8.42725
-8.4291
-8.42931
-8.42785
-8.42469
-8.41981
-8.41318
-8.40479
-8.39462
-8.38266
-8.3689
-8.35336
-8.33604
-8.31697
-8.29619
-8.27373
-8.24965
-8.22401
-8.19688
-8.16835
-8.1385
-8.10744
-8.07528
-8.04215
-8.00817
-7.97348
-7.93821
-7.9025
-7.86648
-7.83028
-7.79401
-7.75777
-7.72162
-7.68564
-7.64982
-7.61417
-7.57861
-7.54303
-7.50726
-7.47108
-7.43417
-7.39614
-7.35653
-7.31477
-7.27021
-7.22208
-7.1695
-7.1115
-7.04699
-6.97477
-6.89354
-6.80187
-6.6982
-6.58084
-6.44815
-6.2986
-6.1305
-5.94154
-5.72904
-5.49078
-5.22496
-4.92978
-4.60353
-4.24461
-3.85162
-3.42335
-2.95887
-2.45757
-1.9192
-1.34395
-0.732457
-0.0858593
0.594114
1.30516
2.04439
2.80832
3.59284
4.39328
5.20452
6.02105
6.83694
7.64601
8.44165
9.21698
9.96573
10.6835
11.3684
12.0168
12.6238
13.1871
13.7062
14.1786
14.6013
14.9747
15.3008
15.5821
15.8219
16.0238
16.1914
16.3286
16.4392
16.5267
16.5945
16.6457
16.6829
16.7086
16.7249
16.7335
16.736
16.7338
16.7278
16.719
16.7083
16.6961
16.6831
16.6699
16.6568
16.6445
16.6334
16.6244
16.6184
16.6169
16.6219
16.637
16.667
16.727
16.79
-7.50701
-7.51808
-7.53235
-7.54142
-7.54593
-7.54854
-7.55086
-7.55384
-7.55808
-7.56393
-7.57158
-7.58108
-7.59245
-7.60566
-7.62064
-7.63731
-7.65557
-7.6753
-7.69639
-7.71871
-7.74213
-7.7665
-7.79169
-7.81757
-7.84398
-7.8708
-7.89789
-7.92514
-7.95241
-7.97959
-8.00658
-8.03327
-8.05955
-8.08536
-8.11059
-8.13517
-8.15903
-8.18211
-8.20433
-8.22563
-8.24596
-8.26527
-8.2835
-8.3006
-8.31652
-8.33122
-8.34466
-8.35678
-8.36756
-8.37694
-8.38488
-8.39134
-8.39628
-8.39966
-8.40143
-8.40157
-8.40004
-8.39679
-8.39181
-8.38506
-8.37653
-8.36619
-8.35404
-8.34007
-8.32429
-8.30669
-8.28732
-8.26618
-8.24334
-8.21883
-8.19272
-8.16509
-8.13601
-8.1056
-8.07394
-8.04117
-8.00741
-7.9728
-7.93749
-7.90161
-7.86532
-7.82877
-7.79209
-7.75541
-7.71885
-7.6825
-7.64644
-7.6107
-7.5753
-7.54017
-7.50523
-7.47034
-7.43527
-7.39975
-7.36339
-7.32576
-7.28631
-7.24439
-7.19925
-7.15003
-7.09577
-7.03537
-6.96765
-6.89132
-6.80495
-6.70695
-6.59567
-6.46947
-6.32686
-6.1661
-5.98464
-5.77981
-5.54955
-5.29204
-5.00547
-4.68811
-4.33835
-3.95475
-3.5361
-3.08143
-2.5901
-2.06182
-1.49673
-0.895408
-0.258959
0.410944
1.11204
1.84152
2.59596
3.37132
4.16307
4.96621
5.77531
6.58437
7.38702
8.17666
8.94693
9.69346
10.4143
11.1052
11.7605
12.3763
12.9502
13.481
13.9656
14.4016
14.789
15.129
15.424
15.677
15.8914
16.0709
16.2192
16.3401
16.4371
16.5136
16.5726
16.617
16.6492
16.6714
16.6853
16.6925
16.6945
16.6923
16.6869
16.6792
16.6697
16.6591
16.6479
16.6367
16.6259
16.6163
16.6084
16.6032
16.602
16.6066
16.62
16.6444
16.6918
16.7239
-7.48117
-7.49551
-7.51541
-7.52946
-7.53786
-7.54362
-7.54847
-7.55338
-7.55903
-7.56585
-7.57412
-7.58397
-7.59547
-7.60862
-7.62337
-7.63968
-7.65745
-7.67661
-7.69704
-7.71862
-7.74125
-7.76479
-7.78912
-7.81412
-7.83965
-7.86559
-7.89182
-7.91822
-7.94467
-7.97106
-7.99729
-8.02326
-8.04887
-8.07404
-8.09868
-8.12271
-8.14606
-8.16867
-8.19046
-8.21138
-8.23137
-8.25036
-8.26831
-8.28516
-8.30087
-8.31538
-8.32865
-8.34063
-8.35127
-8.36053
-8.36837
-8.37473
-8.37957
-8.38284
-8.38452
-8.38454
-8.38288
-8.3795
-8.37435
-8.36742
-8.35867
-8.3481
-8.33567
-8.32139
-8.30526
-8.28728
-8.26749
-8.2459
-8.22255
-8.19751
-8.17083
-8.14259
-8.11288
-8.08181
-8.0495
-8.01606
-7.98165
-7.9464
-7.91048
-7.87405
-7.83725
-7.80027
-7.76324
-7.72632
-7.68964
-7.65332
-7.61746
-7.5821
-7.54728
-7.51296
-7.47906
-7.44546
-7.41195
-7.37827
-7.34406
-7.30889
-7.27222
-7.23342
-7.19174
-7.14633
-7.09622
-7.04032
-6.97745
-6.90629
-6.82542
-6.73325
-6.6281
-6.50837
-6.37257
-6.21884
-6.0444
-5.84667
-5.62375
-5.37374
-5.09481
-4.7852
-4.44328
-4.06759
-3.65684
-3.21005
-2.72652
-2.20592
-1.64834
-1.05429
-0.424826
0.238417
0.933195
1.65674
2.40573
3.17614
3.96353
4.76288
5.56857
6.37429
7.17373
7.96119
8.73233
9.48429
10.2123
10.9103
11.5734
12.1975
12.7801
13.3191
13.8121
14.257
14.6537
15.0032
15.3076
15.5697
15.7928
15.9805
16.1365
16.2646
16.3682
16.4509
16.5156
16.5652
16.6021
16.6286
16.6464
16.6572
16.6624
16.663
16.6602
16.6547
16.6473
16.6385
16.6289
16.619
16.6094
16.6006
16.5933
16.5882
16.5866
16.5898
16.5999
16.6172
16.651
16.6579
-7.4626
-7.47926
-7.50293
-7.52104
-7.53304
-7.54187
-7.54931
-7.55636
-7.5637
-7.57183
-7.58107
-7.59162
-7.60356
-7.61695
-7.63176
-7.64797
-7.66551
-7.68431
-7.70428
-7.72531
-7.74731
-7.77017
-7.79377
-7.818
-7.84274
-7.86788
-7.8933
-7.9189
-7.94457
-7.97019
-7.99569
-8.02095
-8.04589
-8.07042
-8.09446
-8.11794
-8.14078
-8.16291
-8.18428
-8.2048
-8.22443
-8.24311
-8.26078
-8.27738
-8.29287
-8.30719
-8.32029
-8.33212
-8.34263
-8.35177
-8.35948
-8.36573
-8.37045
-8.37361
-8.37515
-8.37503
-8.3732
-8.36963
-8.36426
-8.35708
-8.34804
-8.33714
-8.32434
-8.30966
-8.29307
-8.2746
-8.25427
-8.23209
-8.20812
-8.18241
-8.15503
-8.12606
-8.0956
-8.06376
-8.03068
-7.99649
-7.96134
-7.92541
-7.88885
-7.85184
-7.81456
-7.77718
-7.73989
-7.70284
-7.66619
-7.63009
-7.59465
-7.55994
-7.52599
-7.49281
-7.46031
-7.4284
-7.39688
-7.3655
-7.33392
-7.3017
-7.26832
-7.23315
-7.19545
-7.15435
-7.10889
-7.05797
-7.00037
-6.9348
-6.85979
-6.77375
-6.67498
-6.56189
-6.43296
-6.28619
-6.11865
-5.92781
-5.71188
-5.46892
-5.19707
-4.89454
-4.55964
-4.19086
-3.78689
-3.34666
-2.86944
-2.35485
-1.80292
-1.21409
-0.589354
0.0696635
0.760704
1.48106
2.22751
2.99596
3.78192
4.58016
5.38476
6.1893
6.98857
7.77916
8.55665
9.3154
10.05
10.7549
11.4254
12.0574
12.6476
13.194
13.694
14.1462
14.5502
14.907
15.2185
15.4874
15.717
15.9107
16.0723
16.2056
16.3141
16.4012
16.4701
16.5235
16.5639
16.5936
16.6144
16.6279
16.6355
16.6384
16.6376
16.6338
16.628
16.6205
16.6121
16.6032
16.5943
16.586
16.5788
16.5734
16.5708
16.5718
16.5778
16.5875
16.6084
16.5945
-7.45512
-7.47268
-7.49803
-7.51858
-7.53313
-7.54434
-7.55391
-7.56281
-7.57171
-7.58111
-7.59135
-7.60265
-7.61513
-7.62886
-7.64385
-7.66008
-7.6775
-7.69606
-7.71568
-7.73628
-7.75777
-7.78005
-7.80301
-7.82657
-7.8506
-7.87501
-7.8997
-7.92457
-7.9495
-7.97442
-7.99922
-8.02382
-8.04813
-8.07206
-8.09555
-8.11851
-8.14087
-8.16256
-8.18352
-8.20369
-8.223
-8.24139
-8.25881
-8.27519
-8.29049
-8.30464
-8.3176
-8.32931
-8.3397
-8.34873
-8.35635
-8.36248
-8.36709
-8.37012
-8.37152
-8.37123
-8.3692
-8.3654
-8.35977
-8.35227
-8.34288
-8.33156
-8.31831
-8.30312
-8.28597
-8.26689
-8.24589
-8.223
-8.19826
-8.17175
-8.14352
-8.11368
-8.08233
-8.0496
-8.01564
-7.98058
-7.94461
-7.90791
-7.87065
-7.83303
-7.79525
-7.75751
-7.72
-7.68291
-7.64642
-7.6107
-7.57587
-7.54202
-7.50922
-7.47747
-7.44672
-7.41686
-7.38773
-7.35908
-7.33057
-7.30178
-7.27218
-7.24114
-7.20792
-7.17164
-7.13131
-7.08584
-7.03398
-6.97442
-6.90568
-6.82612
-6.73404
-6.62783
-6.50592
-6.36614
-6.20545
-6.02142
-5.81229
-5.57612
-5.31099
-5.01506
-4.68659
-4.32402
-3.92597
-3.49131
-3.01925
-2.50934
-1.96158
-1.37633
-0.754466
-0.0976393
0.59185
1.31135
2.05779
2.82678
3.6136
4.41288
5.21865
6.02533
6.82975
7.62742
8.41151
9.17676
9.91779
10.6294
11.3067
11.9457
12.5428
13.0956
13.6019
14.0602
14.4702
14.8328
15.1498
15.4239
15.6582
15.8563
16.022
16.1591
16.271
16.3614
16.4333
16.4895
16.5325
16.5646
16.5876
16.6031
16.6126
16.6172
16.6179
16.6156
16.6109
16.6045
16.597
16.5887
16.5803
16.5721
16.5647
16.5586
16.5545
16.5529
16.5544
16.5565
16.5658
16.5348
-7.45803
-7.47536
-7.50069
-7.52218
-7.53818
-7.55094
-7.56202
-7.5723
-7.58242
-7.59284
-7.60391
-7.61585
-7.6288
-7.64283
-7.65797
-7.67421
-7.69154
-7.7099
-7.72922
-7.74944
-7.77047
-7.79224
-7.81464
-7.8376
-7.861
-7.88477
-7.9088
-7.93301
-7.9573
-7.98159
-8.00578
-8.02979
-8.05354
-8.07695
-8.09995
-8.12246
-8.14441
-8.16574
-8.18637
-8.20624
-8.2253
-8.24347
-8.2607
-8.27693
-8.2921
-8.30614
-8.31901
-8.33063
-8.34096
-8.34992
-8.35746
-8.36352
-8.36804
-8.37095
-8.3722
-8.37173
-8.36948
-8.36541
-8.35947
-8.35161
-8.34179
-8.33
-8.3162
-8.30039
-8.28258
-8.26276
-8.24096
-8.21722
-8.19158
-8.16412
-8.1349
-8.10405
-8.07167
-8.03791
-8.00293
-7.96689
-7.93
-7.89243
-7.85441
-7.81614
-7.77784
-7.73974
-7.70205
-7.66499
-7.62877
-7.59356
-7.55952
-7.52676
-7.49535
-7.46531
-7.43661
-7.40917
-7.3828
-7.35728
-7.33228
-7.30736
-7.282
-7.25556
-7.22729
-7.19629
-7.16157
-7.12199
-7.07633
-7.0232
-6.9611
-6.88837
-6.80328
-6.70422
-6.58953
-6.45679
-6.30294
-6.12566
-5.92324
-5.69368
-5.43502
-5.14536
-4.8229
-4.466
-4.07322
-3.64337
-3.17555
-2.66929
-2.12451
-1.54147
-0.920886
-0.264449
0.425443
1.14615
1.89484
2.66659
3.45639
4.25925
5.06998
5.88412
6.6965
7.5015
8.29297
9.06532
9.81313
10.5312
11.2148
11.8598
12.4628
13.021
13.5323
13.9954
14.4101
14.777
15.0981
15.3759
15.6135
15.8147
15.9831
16.1226
16.2369
16.3295
16.4034
16.4616
16.5064
16.5402
16.5648
16.5819
16.5928
16.5987
16.6006
16.5993
16.5956
16.59
16.583
16.5752
16.567
16.5587
16.5509
16.5438
16.5379
16.5332
16.5302
16.5252
16.5242
16.4791
-7.46971
-7.48599
-7.50998
-7.53112
-7.54753
-7.56102
-7.57292
-7.58404
-7.59493
-7.60603
-7.61766
-7.63002
-7.64327
-7.65747
-7.67268
-7.68888
-7.70607
-7.7242
-7.74322
-7.76307
-7.78369
-7.80498
-7.82688
-7.8493
-7.87216
-7.89536
-7.91882
-7.94247
-7.96621
-7.98996
-8.01363
-8.03716
-8.06046
-8.08345
-8.10607
-8.12824
-8.14989
-8.17095
-8.19135
-8.21103
-8.22993
-8.24798
-8.26512
-8.28128
-8.29639
-8.31041
-8.32326
-8.33487
-8.34519
-8.35414
-8.36165
-8.36767
-8.37211
-8.37493
-8.37604
-8.37538
-8.3729
-8.36854
-8.36224
-8.35396
-8.34366
-8.3313
-8.31686
-8.30034
-8.28174
-8.26106
-8.23833
-8.21359
-8.1869
-8.15833
-8.12797
-8.09594
-8.06239
-8.02745
-7.99132
-7.95418
-7.91624
-7.87772
-7.83885
-7.79986
-7.76102
-7.72256
-7.68473
-7.64778
-7.61192
-7.57735
-7.54426
-7.51278
-7.48299
-7.45493
-7.42858
-7.40387
-7.38062
-7.35861
-7.33751
-7.31688
-7.29618
-7.27477
-7.25187
-7.22658
-7.19788
-7.16462
-7.12553
-7.07922
-7.02412
-6.95853
-6.88071
-6.78905
-6.68178
-6.5561
-6.40901
-6.23846
-6.04266
-5.81961
-5.56724
-5.2836
-4.96683
-4.61521
-4.22722
-3.80158
-3.33733
-2.8339
-2.29118
-1.70924
-1.08858
-0.431017
0.260883
0.984414
1.73715
2.5136
3.30874
4.11917
4.93901
5.76233
6.58411
7.39829
8.19859
8.97911
9.73429
10.4589
11.1483
11.7984
12.4059
12.9681
13.4831
13.9496
14.3674
14.7373
15.061
15.341
15.5806
15.7835
15.9535
16.0944
16.2101
16.3039
16.3791
16.4384
16.4845
16.5195
16.5453
16.5634
16.5754
16.5823
16.585
16.5846
16.5815
16.5765
16.57
16.5624
16.5542
16.5456
16.5371
16.5288
16.5209
16.5132
16.5056
16.4939
16.4839
16.4273
-7.48809
-7.50266
-7.52434
-7.54409
-7.55999
-7.57344
-7.58553
-7.59694
-7.60816
-7.61957
-7.63145
-7.644
-7.65734
-7.67156
-7.68669
-7.70275
-7.71973
-7.73759
-7.75629
-7.77577
-7.79598
-7.81684
-7.83828
-7.86023
-7.8826
-7.90533
-7.92832
-7.95151
-7.97481
-7.99814
-8.02143
-8.0446
-8.06757
-8.09028
-8.11265
-8.1346
-8.15608
-8.177
-8.19731
-8.21692
-8.23579
-8.25383
-8.27098
-8.28718
-8.30236
-8.31644
-8.32936
-8.34104
-8.35142
-8.36042
-8.36796
-8.37398
-8.37838
-8.38111
-8.38209
-8.38125
-8.37851
-8.37383
-8.36713
-8.35836
-8.34749
-8.33448
-8.31931
-8.30196
-8.28244
-8.26076
-8.23694
-8.21105
-8.18314
-8.1533
-8.12163
-8.08826
-8.05336
-8.01709
-7.97966
-7.94127
-7.90216
-7.86258
-7.82277
-7.78302
-7.7436
-7.70478
-7.66684
-7.63004
-7.59464
-7.56084
-7.52886
-7.49884
-7.47089
-7.44505
-7.42134
-7.39965
-7.37986
-7.3617
-7.34485
-7.32887
-7.31321
-7.2972
-7.28005
-7.26083
-7.23851
-7.21191
-7.17973
-7.14052
-7.09268
-7.03447
-6.96414
-6.88009
-6.78035
-6.66168
-6.52123
-6.35732
-6.16807
-5.9514
-5.70513
-5.42728
-5.11591
-4.76923
-4.38562
-3.96374
-3.5025
-3.00129
-2.45994
-1.87831
-1.25664
-0.596974
0.097809
0.824804
1.58241
2.36623
3.17
3.98976
4.82036
5.65545
6.48908
7.31479
8.12595
8.91626
9.67985
10.4114
11.1062
11.7606
12.3713
12.936
13.453
13.9213
14.3406
14.7118
15.0365
15.3174
15.5577
15.7611
15.9315
16.0729
16.1889
16.2833
16.359
16.419
16.4658
16.5015
16.528
16.547
16.5597
16.5672
16.5707
16.5708
16.5683
16.5637
16.5574
16.55
16.5416
16.5327
16.5233
16.5137
16.5037
16.4928
16.4809
16.4631
16.4452
16.3793
-7.51078
-7.52322
-7.54189
-7.55947
-7.57413
-7.58687
-7.59859
-7.60982
-7.62095
-7.63232
-7.64415
-7.65663
-7.66986
-7.68392
-7.69886
-7.71467
-7.73136
-7.7489
-7.76724
-7.78635
-7.80617
-7.82664
-7.84768
-7.86922
-7.89121
-7.91355
-7.93619
-7.95904
-7.98202
-8.00507
-8.02811
-8.05107
-8.07387
-8.09644
-8.11871
-8.14061
-8.16206
-8.18299
-8.20334
-8.22304
-8.242
-8.26017
-8.27747
-8.29383
-8.30917
-8.32342
-8.33651
-8.34835
-8.35887
-8.36797
-8.3756
-8.38164
-8.38604
-8.3887
-8.38954
-8.38849
-8.38547
-8.38041
-8.37325
-8.36393
-8.3524
-8.33863
-8.3226
-8.30428
-8.2837
-8.26085
-8.23579
-8.20857
-8.17925
-8.14795
-8.11478
-8.0799
-8.04347
-8.0057
-7.9668
-7.92702
-7.88661
-7.84585
-7.80503
-7.76444
-7.72441
-7.68523
-7.6472
-7.61062
-7.57576
-7.54286
-7.51213
-7.48376
-7.45786
-7.43449
-7.41366
-7.39529
-7.37923
-7.36523
-7.35295
-7.34194
-7.33162
-7.32132
-7.31021
-7.29736
-7.28169
-7.262
-7.23694
-7.20502
-7.1646
-7.11388
-7.05116
-6.97482
-6.88259
-6.7707
-6.63666
-6.47923
-6.29637
-6.08589
-5.84545
-5.57307
-5.26677
-4.92466
-4.54505
-4.12651
-3.66789
-3.16853
-2.6284
-2.04745
-1.42537
-0.763653
-0.0653141
0.666713
1.43002
2.22137
3.03518
3.8666
4.71009
5.55921
6.40726
7.24721
8.07186
8.87427
9.64803
10.3875
11.0881
11.7461
12.3588
12.9243
13.4415
13.9096
14.3285
14.6992
15.0234
15.3036
15.5432
15.7459
15.9157
16.0566
16.1723
16.2664
16.3422
16.4023
16.4493
16.4854
16.5124
16.5319
16.5451
16.5532
16.5572
16.5578
16.5556
16.5513
16.5452
16.5378
16.5292
16.5197
16.5095
16.4984
16.4863
16.4724
16.4563
16.4331
16.4084
16.3349
-7.53541
-7.54546
-7.56071
-7.57557
-7.58842
-7.59997
-7.61084
-7.62147
-7.63216
-7.64318
-7.6547
-7.66688
-7.67982
-7.69357
-7.70818
-7.72366
-7.74
-7.75717
-7.77515
-7.7939
-7.81336
-7.83347
-7.85417
-7.8754
-7.89709
-7.91917
-7.94157
-7.96422
-7.98704
-8.00996
-8.03291
-8.05581
-8.0786
-8.1012
-8.12353
-8.14553
-8.16712
-8.18823
-8.20878
-8.2287
-8.24791
-8.26635
-8.28392
-8.30056
-8.31617
-8.3307
-8.34403
-8.35611
-8.36682
-8.37609
-8.38383
-8.38994
-8.39433
-8.3969
-8.39759
-8.39629
-8.39293
-8.38742
-8.37971
-8.36974
-8.35743
-8.34277
-8.32573
-8.30629
-8.28446
-8.26028
-8.23377
-8.20501
-8.1741
-8.14113
-8.10626
-8.06965
-8.03151
-7.99205
-7.95153
-7.91021
-7.86836
-7.82632
-7.78439
-7.74293
-7.70226
-7.66272
-7.62465
-7.58835
-7.55413
-7.52226
-7.49295
-7.46641
-7.44276
-7.42208
-7.40438
-7.38958
-7.37752
-7.36794
-7.36049
-7.35469
-7.34996
-7.34559
-7.34074
-7.33444
-7.32558
-7.31292
-7.29507
-7.2705
-7.23748
-7.19423
-7.13909
-7.07039
-6.9853
-6.87981
-6.75191
-6.60065
-6.42388
-6.21938
-5.9848
-5.71788
-5.41663
-5.07913
-4.70361
-4.28856
-3.83277
-3.33542
-2.79636
-2.21579
-1.59365
-0.930572
-0.229067
0.508143
1.27831
2.07804
2.90243
3.74638
4.60408
5.46887
6.33356
7.19044
8.03158
8.84913
9.63584
10.3854
11.0928
11.7545
12.3683
12.933
13.4483
13.914
14.3305
14.6987
15.0205
15.2985
15.536
15.7368
15.9049
16.0444
16.1591
16.2524
16.3276
16.3875
16.4344
16.4706
16.4978
16.5176
16.5312
16.5397
16.5441
16.545
16.5432
16.5391
16.5331
16.5256
16.5168
16.5067
16.4955
16.483
16.4688
16.4521
16.4321
16.4039
16.3733
16.2937
-7.55981
-7.56737
-7.57904
-7.59085
-7.60153
-7.61148
-7.62116
-7.63086
-7.64081
-7.6512
-7.66219
-7.67388
-7.68636
-7.69968
-7.71387
-7.72893
-7.74487
-7.76167
-7.77929
-7.79769
-7.81684
-7.83666
-7.85711
-7.87813
-7.89964
-7.92158
-7.94388
-7.96647
-7.98927
-8.01223
-8.03525
-8.05827
-8.08122
-8.10401
-8.12658
-8.14885
-8.17074
-8.19218
-8.21308
-8.23336
-8.25296
-8.27178
-8.28974
-8.30675
-8.32274
-8.33761
-8.35127
-8.36362
-8.37458
-8.38403
-8.39188
-8.39804
-8.4024
-8.40486
-8.40532
-8.4037
-8.39991
-8.39386
-8.38548
-8.3747
-8.36147
-8.34575
-8.32752
-8.30677
-8.2835
-8.25776
-8.2296
-8.19909
-8.16635
-8.13151
-8.09472
-8.05619
-8.01613
-7.97482
-7.93252
-7.8895
-7.84607
-7.8026
-7.75946
-7.71703
-7.67567
-7.63575
-7.59764
-7.56168
-7.52819
-7.49745
-7.46972
-7.44519
-7.42401
-7.40625
-7.39193
-7.38096
-7.37317
-7.36829
-7.36594
-7.36562
-7.36674
-7.36854
-7.37016
-7.3706
-7.36871
-7.36321
-7.35267
-7.33548
-7.30988
-7.27411
-7.22661
-7.16546
-7.08701
-6.98753
-6.86572
-6.72052
-6.54971
-6.35099
-6.12211
-5.86061
-5.56438
-5.23147
-4.86006
-4.44858
-3.99575
-3.50063
-2.96282
-2.38234
-1.75936
-1.0946
-0.389992
0.352046
1.12872
1.93657
2.77111
3.62726
4.49916
5.3801
6.26256
7.13834
7.99871
8.8348
9.63807
10.401
11.1178
11.7845
12.3993
12.962
13.4735
13.9345
14.3461
14.7096
15.0271
15.3011
15.535
15.7327
15.8981
16.0354
16.1483
16.2403
16.3145
16.3738
16.4204
16.4565
16.4837
16.5037
16.5175
16.5264
16.5311
16.5323
16.5308
16.5269
16.521
16.5134
16.5042
16.4936
16.4815
16.4675
16.4513
16.4318
16.4083
16.3758
16.3402
16.2558
-7.58216
-7.58729
-7.5954
-7.60405
-7.61233
-7.62045
-7.62865
-7.63716
-7.64612
-7.65567
-7.66592
-7.67696
-7.68884
-7.70161
-7.71529
-7.72989
-7.74541
-7.76182
-7.7791
-7.79721
-7.8161
-7.83573
-7.85602
-7.87693
-7.89839
-7.92033
-7.94268
-7.96536
-7.98832
-8.01146
-8.03472
-8.05802
-8.08129
-8.10444
-8.1274
-8.15009
-8.17242
-8.19431
-8.21569
-8.23646
-8.25654
-8.27584
-8.29427
-8.31174
-8.32815
-8.3434
-8.3574
-8.37005
-8.38123
-8.39084
-8.39878
-8.40493
-8.40918
-8.41143
-8.41158
-8.40952
-8.40516
-8.39841
-8.3892
-8.37744
-8.36309
-8.34611
-8.32647
-8.30416
-8.27921
-8.25166
-8.22157
-8.18904
-8.1542
-8.1172
-8.07822
-8.03748
-7.99523
-7.95177
-7.90741
-7.86245
-7.81727
-7.77224
-7.72778
-7.68429
-7.6422
-7.60189
-7.56378
-7.52824
-7.4956
-7.46617
-7.44021
-7.41793
-7.39949
-7.38496
-7.37434
-7.36754
-7.36437
-7.36453
-7.36763
-7.37314
-7.38043
-7.38872
-7.39711
-7.40455
-7.40986
-7.41171
-7.4086
-7.39888
-7.38077
-7.35261
-7.31285
-7.25903
-7.1866
-7.09277
-6.97707
-6.83789
-6.67291
-6.47975
-6.25608
-5.99949
-5.70782
-5.37902
-5.01123
-4.60283
-4.15247
-3.65915
-3.12231
-2.54184
-1.91796
-1.25146
-0.543978
0.202283
0.984596
1.79956
2.64293
3.5098
4.39446
5.29034
6.18997
7.08494
7.96603
8.8234
9.64708
10.4278
11.1581
11.8328
12.45
13.0106
13.5166
13.9706
14.3748
14.7313
15.0422
15.3104
15.5392
15.7325
15.8943
16.0285
16.139
16.2292
16.3022
16.3605
16.4066
16.4424
16.4696
16.4897
16.5037
16.5129
16.5179
16.5195
16.5182
16.5144
16.5086
16.501
16.4915
16.4804
16.4673
16.452
16.434
16.4119
16.3851
16.3488
16.3089
16.2207
-7.60115
-7.60401
-7.60877
-7.61432
-7.62012
-7.62621
-7.63274
-7.63983
-7.64757
-7.65607
-7.6654
-7.67563
-7.6868
-7.69893
-7.71204
-7.72614
-7.74123
-7.75727
-7.77424
-7.79211
-7.81082
-7.83032
-7.85057
-7.87148
-7.89301
-7.91507
-7.9376
-7.96052
-7.98376
-8.00724
-8.03088
-8.0546
-8.07832
-8.10196
-8.12543
-8.14864
-8.17152
-8.19397
-8.2159
-8.23722
-8.25784
-8.27766
-8.29658
-8.31451
-8.33134
-8.34695
-8.36126
-8.37414
-8.38548
-8.39516
-8.40307
-8.40909
-8.4131
-8.41499
-8.41464
-8.41196
-8.40683
-8.39916
-8.38888
-8.37589
-8.36016
-8.34163
-8.32028
-8.29612
-8.26918
-8.2395
-8.20716
-8.17228
-8.13501
-8.09552
-8.05401
-8.01075
-7.96601
-7.92013
-7.87346
-7.82637
-7.77926
-7.73255
-7.68669
-7.64213
-7.59931
-7.55869
-7.5207
-7.48574
-7.45417
-7.42631
-7.40242
-7.38273
-7.36738
-7.35645
-7.34992
-7.34768
-7.34952
-7.35512
-7.36405
-7.37575
-7.38956
-7.40465
-7.42007
-7.43474
-7.44742
-7.45673
-7.46111
-7.45885
-7.44823
-7.42772
-7.39551
-7.34808
-7.28094
-7.1926
-7.08272
-6.94921
-6.78964
-6.60157
-6.38262
-6.1304
-5.84268
-5.51738
-5.15259
-4.74664
-4.29816
-3.80611
-3.26984
-2.68917
-2.06432
-1.3961
-0.686031
0.0638047
0.850737
1.67143
2.52182
3.39717
4.29203
5.20013
6.11434
7.02652
7.92747
8.80688
9.65364
10.4565
11.2055
11.8933
12.5166
13.0763
13.5765
14.0217
14.4161
14.763
15.0651
15.3254
15.5475
15.7351
15.8923
16.0228
16.1304
16.2184
16.2898
16.347
16.3925
16.4279
16.455
16.4752
16.4895
16.4989
16.5043
16.5062
16.5052
16.5017
16.496
16.4883
16.4786
16.467
16.4531
16.4366
16.4168
16.3925
16.3627
16.3232
16.2794
16.1885
-7.6161
-7.61697
-7.61874
-7.62137
-7.62469
-7.62865
-7.63332
-7.63876
-7.64506
-7.65227
-7.66046
-7.66968
-7.67996
-7.69133
-7.70378
-7.71732
-7.73193
-7.74759
-7.76427
-7.78192
-7.80051
-7.81996
-7.84022
-7.86122
-7.88291
-7.90519
-7.928
-7.95126
-7.97489
-7.9988
-8.02291
-8.04714
-8.07139
-8.09558
-8.11962
-8.14342
-8.16687
-8.1899
-8.21239
-8.23426
-8.25539
-8.27569
-8.29504
-8.31335
-8.3305
-8.34637
-8.36085
-8.37382
-8.38516
-8.39474
-8.40244
-8.40813
-8.41169
-8.41299
-8.41192
-8.40835
-8.40219
-8.39334
-8.3817
-8.3672
-8.34978
-8.3294
-8.30604
-8.27971
-8.25044
-8.21831
-8.18341
-8.14588
-8.10589
-8.06363
-8.01934
-7.97328
-7.92581
-7.8773
-7.82816
-7.7788
-7.72968
-7.68124
-7.63399
-7.58839
-7.54496
-7.50417
-7.46651
-7.4324
-7.40221
-7.37625
-7.35481
-7.3381
-7.32626
-7.31936
-7.31734
-7.32009
-7.32734
-7.33877
-7.35389
-7.37212
-7.39272
-7.41485
-7.43749
-7.45951
-7.47963
-7.49637
-7.50814
-7.51322
-7.51003
-7.497
-7.47159
-7.4291
-7.36656
-7.28371
-7.17926
-7.05089
-6.89613
-6.71251
-6.49761
-6.24902
-5.9645
-5.64193
-5.27938
-4.87516
-4.42788
-3.93647
-3.40027
-2.81907
-2.1931
-1.52319