/*--------------------------------*- C++ -*----------------------------------*\
| =========                 |                                                 |
| \\      /  F ield         | OpenFOAM: The Open Source CFD Toolbox           |
|  \\    /   O peration     | Version:  2.2.x                                 |
|   \\  /    A nd           | Web:      www.OpenFOAM.org                      |
|    \\/     M anipulation  |                                                 |
\*---------------------------------------------------------------------------*/
FoamFile
{
    version     2.0;
    format      ascii;
    class       surfaceScalarField;
    location    "350";
    object      phi;
}
// * * * * * * * * * * * * * * * * * * * * * * * * * * * * * * * * * * * * * //

dimensions      [0 3 -1 0 0 0 0];

internalField   nonuniform List<scalar> 
24170
(
3.08816e-06
4.57325e-08
3.0142e-06
7.39562e-08
2.95206e-06
6.21479e-08
2.88977e-06
6.22823e-08
2.83021e-06
5.95646e-08
2.77478e-06
5.54284e-08
2.72352e-06
5.12578e-08
2.67616e-06
4.73608e-08
2.6324e-06
4.37648e-08
2.59194e-06
4.04585e-08
2.55451e-06
3.74236e-08
2.51988e-06
3.46356e-08
2.48781e-06
3.20705e-08
2.45809e-06
2.97148e-08
2.4305e-06
2.75904e-08
2.40452e-06
2.59815e-08
2.37798e-06
2.65415e-08
2.98021e-08
2.34818e-06
3.46858e-06
3.35937e-08
3.45793e-06
8.46101e-08
3.44341e-06
7.66652e-08
3.4286e-06
7.70904e-08
3.41243e-06
7.57404e-08
3.3953e-06
7.25509e-08
3.37756e-06
6.90043e-08
3.35943e-06
6.54881e-08
3.34115e-06
6.20464e-08
3.32291e-06
5.86956e-08
3.30488e-06
5.5452e-08
3.28719e-06
5.23238e-08
3.26995e-06
4.93144e-08
3.25323e-06
4.64362e-08
3.23708e-06
4.37412e-08
3.22163e-06
4.14314e-08
3.20841e-06
3.97551e-08
3.67681e-08
3.20145e-06
3.80923e-06
3.65627e-08
3.81786e-06
7.5974e-08
3.8201e-06
7.44241e-08
3.82218e-06
7.50086e-08
3.82299e-06
7.49301e-08
3.82248e-06
7.30614e-08
3.82098e-06
7.05029e-08
3.81874e-06
6.77338e-08
3.81592e-06
6.48631e-08
3.81268e-06
6.19415e-08
3.80912e-06
5.9011e-08
3.80534e-06
5.60998e-08
3.80143e-06
5.32242e-08
3.79746e-06
5.04009e-08
3.79355e-06
4.76598e-08
3.78993e-06
4.50462e-08
3.7873e-06
4.23887e-08
3.80838e-08
3.78598e-06
4.20602e-06
3.51032e-08
4.21524e-06
6.67551e-08
4.21958e-06
7.0078e-08
4.22323e-06
7.13606e-08
4.22623e-06
7.19318e-08
4.22851e-06
7.07789e-08
4.2303e-06
6.87145e-08
4.23174e-06
6.62892e-08
4.23293e-06
6.36802e-08
4.2339e-06
6.09635e-08
4.23472e-06
5.81917e-08
4.23542e-06
5.53984e-08
4.23605e-06
5.26004e-08
4.23664e-06
4.98045e-08
4.2373e-06
4.70061e-08
4.23819e-06
4.41513e-08
4.23962e-06
4.09633e-08
3.6431e-08
4.24127e-06
4.64072e-06
3.16885e-08
4.64867e-06
5.88107e-08
4.65363e-06
6.51157e-08
4.65781e-06
6.71806e-08
4.66164e-06
6.81017e-08
4.66501e-06
6.74011e-08
4.66803e-06
6.56988e-08
4.67078e-06
6.35386e-08
4.67333e-06
6.11361e-08
4.6757e-06
5.85842e-08
4.67796e-06
5.59412e-08
4.68011e-06
5.32434e-08
4.6822e-06
5.05068e-08
4.68428e-06
4.77297e-08
4.6864e-06
4.48872e-08
4.68865e-06
4.18953e-08
4.69109e-06
3.85292e-08
3.43148e-08
4.6932e-06
5.11835e-06
2.79341e-08
5.12556e-06
5.16026e-08
5.13108e-06
5.9591e-08
5.13582e-06
6.2445e-08
5.14021e-06
6.37054e-08
5.1442e-06
6.34091e-08
5.14784e-06
6.20593e-08
5.15122e-06
6.0163e-08
5.15439e-06
5.79617e-08
5.15741e-06
5.55666e-08
5.16031e-06
5.30447e-08
5.16312e-06
5.04364e-08
5.16586e-06
4.7759e-08
5.16858e-06
4.50084e-08
5.17132e-06
4.21542e-08
5.17409e-06
3.91202e-08
5.17686e-06
3.57589e-08
3.18746e-08
5.1793e-06
5.64455e-06
2.4395e-08
5.65124e-06
4.49113e-08
5.65711e-06
5.37157e-08
5.66229e-06
5.72705e-08
5.66712e-06
5.88749e-08
5.67158e-06
5.89481e-08
5.6757e-06
5.79367e-08
5.67956e-06
5.63037e-08
5.68322e-06
5.43061e-08
5.68671e-06
5.20723e-08
5.69008e-06
4.96782e-08
5.69334e-06
4.71694e-08
5.69654e-06
4.45667e-08
5.69967e-06
4.1869e-08
5.70278e-06
3.90528e-08
5.70583e-06
3.60668e-08
5.70875e-06
3.28357e-08
2.93154e-08
5.71131e-06
4.40853e-06
2.19804e-08
4.41295e-06
4.04871e-08
4.41727e-06
4.93974e-08
4.42119e-06
5.33487e-08
4.42488e-06
5.51896e-08
4.42833e-06
5.54926e-08
4.43156e-06
5.47047e-08
4.43461e-06
5.32586e-08
4.4375e-06
5.14115e-08
4.44027e-06
4.93004e-08
4.44295e-06
4.70072e-08
4.44553e-06
4.45817e-08
4.44805e-06
4.20482e-08
4.45051e-06
3.94106e-08
4.45291e-06
3.6654e-08
4.45523e-06
3.37471e-08
4.45741e-06
3.06526e-08
2.7388e-08
4.45934e-06
5.14232e-06
1.95191e-08
5.14682e-06
3.59832e-08
5.15146e-06
4.47599e-08
5.15583e-06
4.89819e-08
5.16e-06
5.10183e-08
5.16396e-06
5.15329e-08
5.1677e-06
5.09645e-08
5.17124e-06
4.97121e-08
5.17463e-06
4.80281e-08
5.17787e-06
4.60552e-08
5.181e-06
4.38804e-08
5.18402e-06
4.15577e-08
5.18696e-06
3.91163e-08
5.1898e-06
3.65666e-08
5.19255e-06
3.39052e-08
5.19517e-06
3.11206e-08
5.19762e-06
2.82058e-08
2.52134e-08
5.1998e-06
5.99827e-06
1.70433e-08
6.00279e-06
3.14631e-08
6.00768e-06
3.98631e-08
6.01246e-06
4.42023e-08
6.01712e-06
4.63678e-08
6.02159e-06
4.70572e-08
6.02586e-06
4.66907e-08
6.02995e-06
4.56293e-08
6.03386e-06
4.41154e-08
6.03762e-06
4.22939e-08
6.04125e-06
4.02554e-08
6.04475e-06
3.80576e-08
6.04813e-06
3.57352e-08
6.05139e-06
3.33065e-08
6.05451e-06
3.07799e-08
6.05747e-06
2.81612e-08
6.06021e-06
2.54648e-08
2.27563e-08
6.06267e-06
6.99673e-06
1.4584e-08
7.0012e-06
2.69865e-08
7.0063e-06
3.47635e-08
7.01146e-06
3.90475e-08
7.01657e-06
4.12588e-08
7.02155e-06
4.20692e-08
7.02637e-06
4.18729e-08
7.03101e-06
4.09899e-08
7.03548e-06
3.96467e-08
7.03979e-06
3.79864e-08
7.04394e-06
3.6101e-08
7.04795e-06
3.40516e-08
7.05181e-06
3.18779e-08
7.05551e-06
2.96061e-08
7.05903e-06
2.72548e-08
7.06235e-06
2.48428e-08
7.06542e-06
2.23967e-08
1.99824e-08
7.06819e-06
8.16143e-06
1.21682e-08
8.16583e-06
2.25902e-08
8.17107e-06
2.95193e-08
8.17656e-06
3.35603e-08
8.1821e-06
3.57156e-08
8.18759e-06
3.65791e-08
8.19296e-06
3.6509e-08
8.19816e-06
3.57831e-08
8.2032e-06
3.46059e-08
8.20808e-06
3.31138e-08
8.21278e-06
3.13981e-08
8.21731e-06
2.95214e-08
8.22166e-06
2.75274e-08
8.22582e-06
2.54485e-08
8.22976e-06
2.33111e-08
8.23346e-06
2.11411e-08
8.23689e-06
1.89702e-08
1.68571e-08
8.24002e-06
9.52008e-06
9.81309e-09
9.52438e-06
1.82887e-08
9.52972e-06
2.41796e-08
9.5355e-06
2.77832e-08
9.54146e-06
2.97624e-08
9.54744e-06
3.05975e-08
9.55335e-06
3.05988e-08
9.55913e-06
3.00006e-08
9.56476e-06
2.89798e-08
9.57021e-06
2.76612e-08
9.57548e-06
2.61315e-08
9.58055e-06
2.44524e-08
9.5854e-06
2.26695e-08
9.59003e-06
2.08185e-08
9.59441e-06
1.89293e-08
9.59852e-06
1.70309e-08
9.60234e-06
1.5154e-08
1.33479e-08
9.60585e-06
1.1105e-05
7.52189e-09
1.11092e-05
1.40733e-08
1.11146e-05
1.87721e-08
1.11207e-05
2.17502e-08
1.1127e-05
2.34183e-08
1.11335e-05
2.41312e-08
1.11399e-05
2.41391e-08
1.11463e-05
2.36308e-08
1.11525e-05
2.27517e-08
1.11586e-05
2.1609e-08
1.11644e-05
2.02804e-08
1.11701e-05
1.88233e-08
1.11754e-05
1.72816e-08
1.11806e-05
1.56904e-08
1.11854e-05
1.40798e-08
1.119e-05
1.24773e-08
1.11942e-05
1.09096e-08
9.41634e-09
1.11982e-05
1.29539e-05
5.27923e-09
1.2958e-05
9.90895e-09
1.29635e-05
1.32894e-08
1.29698e-05
1.54694e-08
1.29765e-05
1.66853e-08
1.29835e-05
1.71734e-08
1.29905e-05
1.71157e-08
1.29975e-05
1.66529e-08
1.30044e-05
1.58951e-08
1.3011e-05
1.49268e-08
1.30175e-05
1.38117e-08
1.30237e-05
1.25981e-08
1.30297e-05
1.13241e-08
1.30354e-05
1.00209e-08
1.30407e-05
8.7147e-09
1.30458e-05
7.42849e-09
1.30505e-05
6.18367e-09
5.01074e-09
1.30549e-05
1.51107e-05
3.04581e-09
1.51149e-05
5.72344e-09
1.51205e-05
7.67043e-09
1.51271e-05
8.89708e-09
1.51342e-05
9.52282e-09
1.51417e-05
9.6813e-09
1.51494e-05
9.48387e-09
1.5157e-05
9.0196e-09
1.51645e-05
8.36014e-09
1.51719e-05
7.56213e-09
1.5179e-05
6.6699e-09
1.51859e-05
5.71837e-09
1.51925e-05
4.73563e-09
1.51988e-05
3.74482e-09
1.52047e-05
2.76543e-09
1.52103e-05
1.81415e-09
1.52156e-05
9.05954e-10
6.33616e-11
1.52206e-05
1.76267e-05
7.50189e-10
1.76311e-05
1.38495e-09
1.7637e-05
1.76804e-09
1.7644e-05
1.89424e-09
1.76517e-05
1.80109e-09
1.76599e-05
1.53292e-09
1.76682e-05
1.12874e-09
1.76766e-05
6.22291e-10
1.76849e-05
4.24861e-11
1.76931e-05
-5.86421e-10
1.7701e-05
-1.24438e-09
1.77086e-05
-1.91465e-09
1.77159e-05
-2.58305e-09
1.77229e-05
-3.23743e-09
1.77296e-05
-3.86741e-09
1.77358e-05
-4.46404e-09
1.77418e-05
-5.01918e-09
-5.51759e-09
1.77473e-05
1.78284e-05
-1.42318e-09
1.78325e-05
-2.74251e-09
1.78382e-05
-3.88307e-09
1.78449e-05
-4.84882e-09
1.78524e-05
-5.66504e-09
1.78603e-05
-6.3685e-09
1.78684e-05
-6.98952e-09
1.78766e-05
-7.54796e-09
1.78847e-05
-8.05684e-09
1.78926e-05
-8.5247e-09
1.79003e-05
-8.95663e-09
1.79077e-05
-9.35499e-09
1.79149e-05
-9.72033e-09
1.79217e-05
-1.0052e-08
1.79282e-05
-1.03489e-08
1.79343e-05
-1.06094e-08
1.79401e-05
-1.08313e-08
-1.10056e-08
1.79456e-05
1.58833e-05
-3.36638e-09
1.5887e-05
-6.4419e-09
1.58921e-05
-8.95131e-09
1.58981e-05
-1.08772e-08
1.59047e-05
-1.23104e-08
1.59117e-05
-1.33744e-08
1.59189e-05
-1.41651e-08
1.59261e-05
-1.47499e-08
1.59332e-05
-1.51794e-08
1.59402e-05
-1.54918e-08
1.5947e-05
-1.57147e-08
1.59535e-05
-1.58671e-08
1.59597e-05
-1.59626e-08
1.59657e-05
-1.60106e-08
1.59713e-05
-1.60175e-08
1.59767e-05
-1.59879e-08
1.59818e-05
-1.59245e-08
-1.58225e-08
1.59866e-05
1.41505e-05
-5.18572e-09
1.4154e-05
-9.93611e-09
1.41588e-05
-1.37302e-08
1.41644e-05
-1.64973e-08
1.41705e-05
-1.8432e-08
1.41769e-05
-1.97692e-08
1.41834e-05
-2.06681e-08
1.41899e-05
-2.12379e-08
1.41963e-05
-2.15644e-08
1.42025e-05
-2.17127e-08
1.42085e-05
-2.17295e-08
1.42143e-05
-2.16481e-08
1.42198e-05
-2.14925e-08
1.42251e-05
-2.12804e-08
1.42301e-05
-2.10245e-08
1.42348e-05
-2.07343e-08
1.42393e-05
-2.0416e-08
-2.00688e-08
1.42436e-05
1.26068e-05
-6.9203e-09
1.26102e-05
-1.33687e-08
1.26149e-05
-1.84135e-08
1.26203e-05
-2.18918e-08
1.2626e-05
-2.42015e-08
1.2632e-05
-2.57212e-08
1.2638e-05
-2.66613e-08
1.26439e-05
-2.71683e-08
1.26497e-05
-2.73624e-08
1.26553e-05
-2.73325e-08
1.26608e-05
-2.71409e-08
1.26659e-05
-2.68318e-08
1.26709e-05
-2.64375e-08
1.26756e-05
-2.59823e-08
1.268e-05
-2.54842e-08
1.26843e-05
-2.49571e-08
1.26883e-05
-2.4411e-08
-2.38489e-08
1.2692e-05
1.12314e-05
-8.54007e-09
1.12349e-05
-1.68513e-08
1.12396e-05
-2.31375e-08
1.12449e-05
-2.71522e-08
1.12504e-05
-2.97001e-08
1.1256e-05
-3.13145e-08
1.12616e-05
-3.22271e-08
1.1267e-05
-3.26206e-08
1.12723e-05
-3.2651e-08
1.12774e-05
-3.24274e-08
1.12823e-05
-3.20227e-08
1.12869e-05
-3.1489e-08
1.12914e-05
-3.08645e-08
1.12955e-05
-3.01777e-08
1.12995e-05
-2.94502e-08
1.13033e-05
-2.86989e-08
1.13068e-05
-2.79363e-08
-2.71684e-08
1.13101e-05
1.0006e-05
-9.93272e-09
1.00097e-05
-2.05055e-08
1.00145e-05
-2.80058e-08
1.00197e-05
-3.23083e-08
1.00249e-05
-3.49572e-08
1.00302e-05
-3.65841e-08
1.00354e-05
-3.74001e-08
1.00404e-05
-3.76322e-08
1.00452e-05
-3.74718e-08
1.00498e-05
-3.70411e-08
1.00542e-05
-3.64195e-08
1.00584e-05
-3.56641e-08
1.00624e-05
-3.48169e-08
1.00661e-05
-3.39092e-08
1.00696e-05
-3.29654e-08
1.00729e-05
-3.20059e-08
1.0076e-05
-3.10492e-08
-3.01103e-08
1.0079e-05
8.91406e-06
-1.08919e-08
8.91802e-06
-2.44621e-08
8.92304e-06
-3.3031e-08
8.92804e-06
-3.73089e-08
8.93304e-06
-3.99484e-08
8.93796e-06
-4.15048e-08
8.94271e-06
-4.21506e-08
8.94726e-06
-4.2179e-08
8.95159e-06
-4.18101e-08
8.95572e-06
-4.11686e-08
8.95964e-06
-4.03349e-08
8.96334e-06
-3.93679e-08
8.96683e-06
-3.83109e-08
8.97012e-06
-3.71953e-08
8.9732e-06
-3.60455e-08
8.97607e-06
-3.48816e-08
8.97874e-06
-3.37219e-08
-3.25821e-08
8.98121e-06
7.94096e-06
-1.11829e-08
7.94546e-06
-2.89619e-08
7.9505e-06
-3.80668e-08
7.9552e-06
-4.20144e-08
7.95988e-06
-4.46285e-08
7.96443e-06
-4.60523e-08
7.96874e-06
-4.64621e-08
7.97282e-06
-4.62502e-08
7.97666e-06
-4.56557e-08
7.98029e-06
-4.47981e-08
7.98371e-06
-4.37556e-08
7.98693e-06
-4.25867e-08
7.98995e-06
-4.13333e-08
7.99278e-06
-4.00256e-08
7.99542e-06
-3.86864e-08
7.99787e-06
-3.73362e-08
8.00015e-06
-3.60025e-08
-3.47293e-08
8.0023e-06
7.07291e-06
-9.75884e-09
7.07857e-06
-3.46271e-08
7.08336e-06
-4.28552e-08
7.08755e-06
-4.62002e-08
7.09177e-06
-4.88517e-08
7.09584e-06
-5.0116e-08
7.09965e-06
-5.02771e-08
7.10324e-06
-4.98317e-08
7.1066e-06
-4.90178e-08
7.10975e-06
-4.79475e-08
7.11269e-06
-4.66993e-08
7.11543e-06
-4.53322e-08
7.11799e-06
-4.38877e-08
7.12035e-06
-4.23935e-08
7.12253e-06
-4.08669e-08
7.12451e-06
-3.93185e-08
7.12627e-06
-3.77578e-08
-3.61909e-08
7.12773e-06
6.29708e-06
-4.3286e-09
6.30526e-06
-4.27998e-08
6.31008e-06
-4.76772e-08
6.31408e-06
-5.02009e-08
6.31788e-06
-5.26507e-08
6.32123e-06
-5.34627e-08
6.32419e-06
-5.32381e-08
6.32687e-06
-5.25128e-08
6.32932e-06
-5.14673e-08
6.33156e-06
-5.0187e-08
6.3336e-06
-4.87433e-08
6.33546e-06
-4.71924e-08
6.33715e-06
-4.55736e-08
6.33866e-06
-4.39123e-08
6.34002e-06
-4.22215e-08
6.3412e-06
-4.05028e-08
6.3422e-06
-3.87599e-08
-3.70013e-08
6.34301e-06
5.60106e-06
9.51341e-09
5.61057e-06
-5.23138e-08
5.61456e-06
-5.16666e-08
5.61887e-06
-5.45039e-08
5.6227e-06
-5.64813e-08
5.62552e-06
-5.62824e-08
5.62749e-06
-5.52085e-08
5.6288e-06
-5.38235e-08
5.62958e-06
-5.22433e-08
5.62991e-06
-5.0521e-08
5.62987e-06
-4.87083e-08
5.62953e-06
-4.68468e-08
5.62892e-06
-4.49651e-08
5.62809e-06
-4.30807e-08
5.62706e-06
-4.11976e-08
5.62585e-06
-3.92968e-08
5.62441e-06
-3.73208e-08
-3.501e-08
5.62242e-06
5.00884e-06
2.98058e-09
5.0051e-06
-4.85708e-08
4.99661e-06
-4.31777e-08
4.98991e-06
-4.78062e-08
4.98306e-06
-4.96228e-08
4.97565e-06
-4.88704e-08
4.96764e-06
-4.72029e-08
4.95904e-06
-4.52204e-08
4.94989e-06
-4.30969e-08
4.94029e-06
-4.09218e-08
4.93034e-06
-3.87569e-08
4.92013e-06
-3.66413e-08
4.90976e-06
-3.45975e-08
4.89932e-06
-3.2636e-08
4.88887e-06
-3.07557e-08
4.87851e-06
-2.89361e-08
4.8683e-06
-2.71102e-08
-2.48438e-08
4.85813e-06
4.45953e-06
4.41096e-06
4.36778e-06
4.31998e-06
4.27035e-06
4.22148e-06
4.17428e-06
4.12906e-06
4.08596e-06
4.04504e-06
4.00628e-06
3.96964e-06
3.93504e-06
3.90241e-06
3.87165e-06
3.84271e-06
3.8156e-06
3.79076e-06
3.49883e-08
-3.49884e-08
6.10377e-08
-2.61356e-08
7.26715e-08
-1.16823e-08
6.94731e-08
3.16927e-09
5.27738e-08
1.66781e-08
2.49873e-08
2.77723e-08
-1.1235e-08
3.62134e-08
-5.33002e-08
4.20599e-08
-9.9e-08
4.56986e-08
-1.47029e-07
4.80303e-08
-1.96632e-07
4.96056e-08
-2.47312e-07
5.06834e-08
-2.98701e-07
5.1392e-08
-3.50499e-07
5.18016e-08
-4.02455e-07
5.19602e-08
-4.54364e-07
5.19122e-08
-5.06065e-07
5.17054e-08
-5.57431e-07
5.13704e-08
-6.0835e-07
5.09243e-08
-6.58726e-07
5.03824e-08
-7.08479e-07
4.97597e-08
-7.57543e-07
4.90704e-08
-8.05865e-07
4.83276e-08
-8.53403e-07
4.75437e-08
-9.00127e-07
4.67294e-08
-9.46018e-07
4.58946e-08
-9.91064e-07
4.5048e-08
-1.03526e-06
4.41972e-08
-1.07861e-06
4.33488e-08
-1.12112e-06
4.25086e-08
-1.16281e-06
4.16812e-08
-1.20368e-06
4.08706e-08
-1.24377e-06
4.00801e-08
-1.28308e-06
3.93122e-08
-1.32166e-06
3.85687e-08
-1.35951e-06
3.78509e-08
-1.39667e-06
3.716e-08
-1.43317e-06
3.64965e-08
-1.46903e-06
3.58607e-08
-1.50428e-06
3.52524e-08
-1.53895e-06
3.46713e-08
-1.57306e-06
3.41168e-08
-1.60664e-06
3.35879e-08
-1.63972e-06
3.30837e-08
-1.67232e-06
3.26028e-08
-1.70446e-06
3.21438e-08
-1.73616e-06
3.17054e-08
-1.76745e-06
3.1286e-08
-1.79833e-06
3.08846e-08
-1.82883e-06
3.04998e-08
-1.85896e-06
3.01307e-08
-1.88874e-06
2.97764e-08
-1.91817e-06
2.94363e-08
-1.94728e-06
2.91099e-08
-1.97608e-06
2.87967e-08
-2.00457e-06
2.84965e-08
-2.03278e-06
2.8209e-08
-2.06071e-06
2.79341e-08
-2.08838e-06
2.76718e-08
-2.1158e-06
2.74227e-08
-2.14299e-06
2.71875e-08
-2.16995e-06
2.69675e-08
-2.19672e-06
2.67643e-08
-2.2233e-06
2.65797e-08
-2.24972e-06
2.64162e-08
-2.276e-06
2.62762e-08
-2.30216e-06
2.61622e-08
-2.32824e-06
2.60767e-08
-2.35427e-06
2.60224e-08
-2.38027e-06
2.60014e-08
-2.40629e-06
2.60162e-08
-2.43236e-06
2.60694e-08
-2.45852e-06
2.61632e-08
-2.48482e-06
2.62999e-08
-2.5113e-06
2.64812e-08
-2.538e-06
2.67084e-08
-2.56498e-06
2.6982e-08
-2.59228e-06
2.73019e-08
-2.61995e-06
2.76673e-08
-2.64802e-06
2.80765e-08
-2.67655e-06
2.85273e-08
-2.70556e-06
2.90166e-08
-2.7351e-06
2.95402e-08
-2.76519e-06
3.00929e-08
-2.79586e-06
3.06681e-08
-2.82713e-06
3.12579e-08
-2.85899e-06
3.18534e-08
-2.89144e-06
3.24444e-08
-2.92446e-06
3.30193e-08
-2.95803e-06
3.35653e-08
-2.9921e-06
3.40679e-08
-3.02661e-06
3.45118e-08
-3.06149e-06
3.48807e-08
-3.09664e-06
3.51573e-08
-3.13196e-06
3.53233e-08
-3.16732e-06
3.536e-08
-3.20256e-06
3.52481e-08
-3.23753e-06
3.49682e-08
-3.27204e-06
3.45007e-08
-3.30586e-06
3.3826e-08
-3.33879e-06
3.29243e-08
-3.37057e-06
3.17755e-08
-3.40093e-06
3.03595e-08
-3.42958e-06
2.86574e-08
-3.45623e-06
2.66521e-08
-3.48055e-06
2.43274e-08
-3.50221e-06
2.16651e-08
-3.52085e-06
1.86443e-08
-3.53609e-06
1.52434e-08
-3.54753e-06
1.14447e-08
-3.55476e-06
7.23628e-09
-3.55734e-06
2.5804e-09
-3.55483e-06
-2.50521e-09
-3.54686e-06
-7.96849e-09
-3.53304e-06
-1.38204e-08
-3.51297e-06
-2.00733e-08
-3.48625e-06
-2.67247e-08
-3.45249e-06
-3.3766e-08
-3.41131e-06
-4.11848e-08
-3.36236e-06
-4.89652e-08
-3.30528e-06
-5.70859e-08
-3.23977e-06
-6.55165e-08
-3.16557e-06
-7.42182e-08
-3.08243e-06
-8.31469e-08
-2.99018e-06
-9.22534e-08
-2.8887e-06
-1.01479e-07
-2.77795e-06
-1.10751e-07
-2.65797e-06
-1.19991e-07
-2.52886e-06
-1.29107e-07
-2.39086e-06
-1.37997e-07
-2.24428e-06
-1.46563e-07
-2.08955e-06
-1.54707e-07
-1.92723e-06
-1.62313e-07
-1.758e-06
-1.69239e-07
-1.58261e-06
-1.75386e-07
-1.40191e-06
-1.80689e-07
-1.21686e-06
-1.85052e-07
-1.02844e-06
-1.88424e-07
-8.37491e-07
-1.90939e-07
-6.44725e-07
-1.9278e-07
-4.51532e-07
-1.93185e-07
-2.57341e-07
-1.94206e-07
-6.20941e-08
-1.95233e-07
1.29232e-07
-1.91359e-07
3.13922e-07
-1.84682e-07
4.91025e-07
-1.77112e-07
6.60023e-07
-1.68988e-07
8.20442e-07
-1.60431e-07
9.71993e-07
-1.51552e-07
1.11449e-06
-1.42484e-07
1.24782e-06
-1.3333e-07
1.37205e-06
-1.24208e-07
1.48735e-06
-1.15262e-07
1.59394e-06
-1.06584e-07
1.69213e-06
-9.82137e-08
1.78233e-06
-9.02072e-08
1.86497e-06
-8.26351e-08
1.94046e-06
-7.55194e-08
2.00929e-06
-6.88519e-08
2.07192e-06
-6.2641e-08
2.1288e-06
-5.68924e-08
2.18037e-06
-5.1584e-08
2.22706e-06
-4.66872e-08
2.26923e-06
-4.21759e-08
2.30725e-06
-3.80245e-08
2.34147e-06
-3.42143e-08
2.37219e-06
-3.07096e-08
2.39966e-06
-2.74657e-08
2.4241e-06
-2.4434e-08
2.44568e-06
-2.15693e-08
2.46449e-06
-1.88082e-08
2.48055e-06
-1.60554e-08
2.49376e-06
-1.32023e-08
2.50379e-06
-1.00313e-08
2.51005e-06
-6.25751e-09
2.51141e-06
-1.36381e-09
2.50557e-06
5.85917e-09
2.48675e-06
1.8822e-08
2.44058e-06
4.61697e-08
1.25623e-07
2.31496e-06
8.55773e-09
-4.34287e-08
1.74029e-09
-1.92145e-08
-1.46023e-08
4.71474e-09
-3.68345e-08
2.54405e-08
-6.32224e-08
4.30969e-08
-9.32174e-08
5.77919e-08
-1.26534e-07
6.95493e-08
-1.62951e-07
7.84895e-08
-2.02276e-07
8.50316e-08
-2.44027e-07
8.97851e-08
-2.87639e-07
9.32197e-08
-3.32624e-07
9.56694e-08
-3.78588e-07
9.7357e-08
-4.25219e-07
9.84336e-08
-4.72265e-07
9.90082e-08
-5.19517e-07
9.91666e-08
-5.66788e-07
9.89796e-08
-6.13916e-07
9.85029e-08
-6.60769e-07
9.77814e-08
-7.07236e-07
9.68534e-08
-7.53226e-07
9.5753e-08
-7.98662e-07
9.45108e-08
-8.43486e-07
9.31542e-08
-8.87647e-07
9.1708e-08
-9.3111e-07
9.01943e-08
-9.73847e-07
8.86325e-08
-1.01584e-06
8.70402e-08
-1.05707e-06
8.54325e-08
-1.09755e-06
8.38225e-08
-1.13726e-06
8.22217e-08
-1.17622e-06
8.06398e-08
-1.21444e-06
7.90849e-08
-1.25192e-06
7.75637e-08
-1.2887e-06
7.60818e-08
-1.32477e-06
7.46435e-08
-1.36017e-06
7.32521e-08
-1.39492e-06
7.191e-08
-1.42904e-06
7.06188e-08
-1.46256e-06
6.93792e-08
-1.4955e-06
6.81915e-08
-1.52788e-06
6.70551e-08
-1.55973e-06
6.59691e-08
-1.59107e-06
6.49321e-08
-1.62193e-06
6.39421e-08
-1.65232e-06
6.29973e-08
-1.68227e-06
6.20953e-08
-1.71179e-06
6.12339e-08
-1.74091e-06
6.04108e-08
-1.76965e-06
5.96236e-08
-1.79801e-06
5.88701e-08
-1.82603e-06
5.81483e-08
-1.8537e-06
5.74563e-08
-1.88105e-06
5.67924e-08
-1.9081e-06
5.61555e-08
-1.93484e-06
5.55445e-08
-1.9613e-06
5.49588e-08
-1.98749e-06
5.43983e-08
-2.01341e-06
5.38633e-08
-2.0391e-06
5.33544e-08
-2.06455e-06
5.2873e-08
-2.08978e-06
5.24207e-08
-2.11482e-06
5.20001e-08
-2.13967e-06
5.16138e-08
-2.16435e-06
5.12653e-08
-2.1889e-06
5.09583e-08
-2.21332e-06
5.06969e-08
-2.23764e-06
5.04856e-08
-2.26188e-06
5.03288e-08
-2.28609e-06
5.02313e-08
-2.31028e-06
5.01977e-08
-2.3345e-06
5.02332e-08
-2.35877e-06
5.03426e-08
-2.38314e-06
5.05307e-08
-2.40764e-06
5.08016e-08
-2.43233e-06
5.11585e-08
-2.45723e-06
5.16037e-08
-2.48239e-06
5.21383e-08
-2.50786e-06
5.27622e-08
-2.53367e-06
5.34737e-08
-2.55987e-06
5.42698e-08
-2.58649e-06
5.51456e-08
-2.61356e-06
5.60944e-08
-2.64113e-06
5.71072e-08
-2.6692e-06
5.81727e-08
-2.69781e-06
5.92773e-08
-2.72695e-06
6.04052e-08
-2.75663e-06
6.15381e-08
-2.78684e-06
6.26552e-08
-2.81755e-06
6.37334e-08
-2.84873e-06
6.47467e-08
-2.88033e-06
6.56669e-08
-2.91228e-06
6.64633e-08
-2.9445e-06
6.71029e-08
-2.97689e-06
6.7551e-08
-3.00934e-06
6.7771e-08
-3.04171e-06
6.77255e-08
-3.07384e-06
6.73755e-08
-3.10555e-06
6.66815e-08
-3.13666e-06
6.56035e-08
-3.16693e-06
6.41012e-08
-3.19614e-06
6.21344e-08
-3.22403e-06
5.96631e-08
-3.25032e-06
5.66481e-08
-3.27472e-06
5.30512e-08
-3.29691e-06
4.88369e-08
-3.31656e-06
4.39713e-08
-3.33332e-06
3.84212e-08
-3.34684e-06
3.21514e-08
-3.35673e-06
2.51241e-08
-3.36259e-06
1.73028e-08
-3.36402e-06
8.65421e-09
-3.3606e-06
-8.4378e-10
-3.35196e-06
-1.11456e-08
-3.33771e-06
-2.22156e-08
-3.31745e-06
-3.40789e-08
-3.29078e-06
-4.67418e-08
-3.2573e-06
-6.01963e-08
-3.21664e-06
-7.44251e-08
-3.16841e-06
-8.94027e-08
-3.11228e-06
-1.05094e-07
-3.0479e-06
-1.21453e-07
-2.97499e-06
-1.38421e-07
-2.89328e-06
-1.55925e-07
-2.80255e-06
-1.73874e-07
-2.70264e-06
-1.92158e-07
-2.59347e-06
-2.10652e-07
-2.475e-06
-2.29213e-07
-2.34731e-06
-2.47684e-07
-2.21054e-06
-2.65882e-07
-2.06496e-06
-2.83601e-07
-1.91092e-06
-3.00627e-07
-1.74891e-06
-3.16733e-07
-1.57952e-06
-3.31694e-07
-1.40348e-06
-3.45277e-07
-1.22162e-06
-3.57267e-07
-1.0348e-06
-3.67505e-07
-8.4401e-07
-3.75843e-07
-6.50241e-07
-3.82211e-07
-4.54378e-07
-3.868e-07
-2.57245e-07
-3.89931e-07
-5.9057e-08
-3.91373e-07
1.36584e-07
-3.89871e-07
3.26025e-07
-3.84664e-07
5.09313e-07
-3.74659e-07
6.85728e-07
-3.61096e-07
8.54783e-07
-3.46176e-07
1.01601e-06
-3.30202e-07
1.169e-06
-3.13418e-07
1.31349e-06
-2.96041e-07
1.44932e-06
-2.78311e-07
1.57644e-06
-2.60466e-07
1.69491e-06
-2.42721e-07
1.80492e-06
-2.25286e-07
1.9067e-06
-2.08355e-07
2.00057e-06
-1.92066e-07
2.08689e-06
-1.7652e-07
2.16607e-06
-1.618e-07
2.23854e-06
-1.47962e-07
2.30473e-06
-1.35022e-07
2.36507e-06
-1.22976e-07
2.42e-06
-1.11814e-07
2.46992e-06
-1.01503e-07
2.51523e-06
-9.20046e-08
2.55632e-06
-8.32666e-08
2.59351e-06
-7.52304e-08
2.62713e-06
-6.784e-08
2.65745e-06
-6.10333e-08
2.68471e-06
-5.47353e-08
2.70913e-06
-4.88611e-08
2.73087e-06
-4.3311e-08
2.75002e-06
-3.79602e-08
2.7666e-06
-3.26407e-08
2.78053e-06
-2.7123e-08
2.79153e-06
-2.10399e-08
2.79909e-06
-1.38062e-08
2.80211e-06
-4.39136e-09
2.79864e-06
9.32434e-09
2.78513e-06
3.23438e-08
2.75506e-06
7.62387e-08
1.71066e-07
2.70963e-06
-1.76629e-08
-2.58205e-08
-4.35124e-08
6.6274e-09
-7.13786e-08
3.25778e-08
-1.0004e-07
5.41002e-08
-1.2955e-07
7.26054e-08
-1.60174e-07
8.84164e-08
-1.92232e-07
1.01608e-07
-2.26026e-07
1.12284e-07
-2.61683e-07
1.2069e-07
-2.9907e-07
1.27173e-07
-3.37928e-07
1.32079e-07
-3.77962e-07
1.35704e-07
-4.18887e-07
1.38284e-07
-4.60458e-07
1.40006e-07
-5.02461e-07
1.41013e-07
-5.44712e-07
1.4142e-07
-5.87051e-07
1.41321e-07
-6.29339e-07
1.40794e-07
-6.71459e-07
1.39904e-07
-7.13311e-07
1.38708e-07
-7.54811e-07
1.37256e-07
-7.95887e-07
1.35591e-07
-8.36482e-07
1.33752e-07
-8.76548e-07
1.31776e-07
-9.16046e-07
1.29694e-07
-9.54946e-07
1.27533e-07
-9.93225e-07
1.25319e-07
-1.03087e-06
1.23075e-07
-1.06786e-06
1.20818e-07
-1.10421e-06
1.18566e-07
-1.13991e-06
1.16332e-07
-1.17495e-06
1.14131e-07
-1.20936e-06
1.1197e-07
-1.24314e-06
1.0986e-07
-1.27631e-06
1.07807e-07
-1.30887e-06
1.05815e-07
-1.34085e-06
1.03889e-07
-1.37226e-06
1.02032e-07
-1.40313e-06
1.00246e-07
-1.43346e-06
9.85301e-08
-1.46329e-06
9.68852e-08
-1.49263e-06
9.53102e-08
-1.5215e-06
9.38033e-08
-1.54992e-06
9.23626e-08
-1.5779e-06
9.09853e-08
-1.60548e-06
8.96688e-08
-1.63265e-06
8.84101e-08
-1.65945e-06
8.7206e-08
-1.68588e-06
8.60535e-08
-1.71195e-06
8.49495e-08
-1.7377e-06
8.38913e-08
-1.76312e-06
8.28764e-08
-1.78823e-06
8.19023e-08
-1.81304e-06
8.09673e-08
-1.83756e-06
8.00699e-08
-1.86181e-06
7.92093e-08
-1.88579e-06
7.83852e-08
-1.90953e-06
7.75979e-08
-1.93302e-06
7.68487e-08
-1.95628e-06
7.61393e-08
-1.97934e-06
7.54723e-08
-2.00219e-06
7.48512e-08
-2.02486e-06
7.42802e-08
-2.04736e-06
7.3764e-08
-2.06971e-06
7.33083e-08
-2.09193e-06
7.29187e-08
-2.11405e-06
7.26017e-08
-2.13609e-06
7.23639e-08
-2.15807e-06
7.22122e-08
-2.18002e-06
7.21534e-08
-2.20198e-06
7.2195e-08
-2.22398e-06
7.23438e-08
-2.24606e-06
7.26064e-08
-2.26824e-06
7.29887e-08
-2.29058e-06
7.34954e-08
-2.31311e-06
7.41297e-08
-2.33586e-06
7.48933e-08
-2.35888e-06
7.57861e-08
-2.38221e-06
7.68058e-08
-2.40589e-06
7.7948e-08
-2.42995e-06
7.92056e-08
-2.45443e-06
8.05685e-08
-2.47935e-06
8.20238e-08
-2.50473e-06
8.35551e-08
-2.5306e-06
8.51424e-08
-2.55696e-06
8.67625e-08
-2.58381e-06
8.8388e-08
-2.61114e-06
8.99883e-08
-2.63894e-06
9.15284e-08
-2.66716e-06
9.29699e-08
-2.69576e-06
9.42705e-08
-2.72468e-06
9.53845e-08
-2.75384e-06
9.62629e-08
-2.78314e-06
9.68539e-08
-2.81248e-06
9.71035e-08
-2.84171e-06
9.69555e-08
-2.87068e-06
9.63518e-08
-2.89923e-06
9.5233e-08
-2.92717e-06
9.3539e-08
-2.95428e-06
9.12091e-08
-2.98033e-06
8.81828e-08
-3.00506e-06
8.44e-08
-3.02821e-06
7.98012e-08
-3.04949e-06
7.43294e-08
-3.06858e-06
6.79299e-08
-3.08516e-06
6.0551e-08
-3.09888e-06
5.21433e-08
-3.10938e-06
4.26575e-08
-3.1163e-06
3.20424e-08
-3.11924e-06
2.02475e-08
-3.1178e-06
7.2203e-09
-3.11162e-06
-7.03011e-09
-3.10031e-06
-2.24539e-08
-3.08347e-06
-3.9053e-08
-3.06071e-06
-5.6844e-08
-3.03163e-06
-7.58295e-08
-2.99583e-06
-9.59979e-08
-2.95294e-06
-1.17325e-07
-2.90257e-06
-1.39774e-07
-2.84437e-06
-1.63292e-07
-2.77802e-06
-1.87811e-07
-2.7032e-06
-2.13242e-07
-2.61965e-06
-2.39476e-07
-2.52715e-06
-2.66378e-07
-2.42552e-06
-2.93784e-07
-2.31468e-06
-3.21499e-07
-2.19459e-06
-3.49304e-07
-2.06531e-06
-3.76957e-07
-1.927e-06
-4.04182e-07
-1.77993e-06
-4.30664e-07
-1.62449e-06
-4.56074e-07
-1.46116e-06
-4.80057e-07
-1.2906e-06
-5.02255e-07
-1.11356e-06
-5.22311e-07
-9.30917e-07
-5.39914e-07
-7.43603e-07
-5.54819e-07
-5.52663e-07
-5.66778e-07
-3.59131e-07
-5.75746e-07
-1.63812e-07
-5.82116e-07
3.13831e-08
-5.85131e-07
2.23585e-07
-5.83571e-07
4.10936e-07
-5.7723e-07
5.9241e-07
-5.66137e-07
7.67858e-07
-5.5011e-07
9.36975e-07
-5.30211e-07
1.09888e-06
-5.0809e-07
1.25302e-06
-4.84341e-07
1.39899e-06
-4.59386e-07
1.53655e-06
-4.33597e-07
1.66559e-06
-4.07342e-07
1.78611e-06
-3.80982e-07
1.89823e-06
-3.54841e-07
2.00215e-06
-3.29213e-07
2.09816e-06
-3.04357e-07
2.18657e-06
-2.80479e-07
2.26777e-06
-2.57727e-07
2.34217e-06
-2.36209e-07
2.4102e-06
-2.15991e-07
2.47228e-06
-1.97103e-07
2.52883e-06
-1.79539e-07
2.58029e-06
-1.63272e-07
2.62704e-06
-1.48254e-07
2.66946e-06
-1.34428e-07
2.70792e-06
-1.2172e-07
2.74274e-06
-1.10049e-07
2.77423e-06
-9.93241e-08
2.80265e-06
-8.94508e-08
2.82824e-06
-8.03205e-08
2.85119e-06
-7.18119e-08
2.87166e-06
-6.37819e-08
2.88976e-06
-5.60526e-08
2.9055e-06
-4.83837e-08
2.91882e-06
-4.04424e-08
2.9295e-06
-3.17279e-08
2.93714e-06
-2.14395e-08
2.94097e-06
-8.2139e-09
2.93975e-06
1.05393e-08
2.9319e-06
4.01933e-08
2.91654e-06
9.15971e-08
1.85342e-07
2.90227e-06
-3.3264e-08
7.46895e-09
-6.78676e-08
4.1241e-08
-1.01157e-07
6.58684e-08
-1.33487e-07
8.64317e-08
-1.65251e-07
1.0437e-07
-1.96865e-07
1.2003e-07
-2.28741e-07
1.33485e-07
-2.61242e-07
1.44785e-07
-2.94603e-07
1.5405e-07
-3.28902e-07
1.61472e-07
-3.64099e-07
1.67277e-07
-4.00084e-07
1.71689e-07
-4.36713e-07
1.74914e-07
-4.73836e-07
1.77129e-07
-5.11307e-07
1.78485e-07
-5.48994e-07
1.79107e-07
-5.86775e-07
1.79103e-07
-6.24543e-07
1.78564e-07
-6.62203e-07
1.77567e-07
-6.99674e-07
1.76181e-07
-7.36884e-07
1.74467e-07
-7.73772e-07
1.7248e-07
-8.10286e-07
1.70267e-07
-8.46381e-07
1.67873e-07
-8.82021e-07
1.65335e-07
-9.17176e-07
1.62689e-07
-9.51823e-07
1.59967e-07
-9.85944e-07
1.57195e-07
-1.01952e-06
1.54399e-07
-1.05256e-06
1.51598e-07
-1.08504e-06
1.48813e-07
-1.11697e-06
1.46058e-07
-1.14835e-06
1.43348e-07
-1.17918e-06
1.40693e-07
-1.20948e-06
1.38103e-07
-1.23925e-06
1.35584e-07
-1.2685e-06
1.33143e-07
-1.29725e-06
1.30784e-07
-1.32551e-06
1.28508e-07
-1.3533e-06
1.26318e-07
-1.38063e-06
1.24213e-07
-1.40751e-06
1.22193e-07
-1.43396e-06
1.20257e-07
-1.46e-06
1.18401e-07
-1.48564e-06
1.16624e-07
-1.51089e-06
1.14921e-07
-1.53577e-06
1.1329e-07
-1.56029e-06
1.11727e-07
-1.58446e-06
1.10228e-07
-1.6083e-06
1.08789e-07
-1.63181e-06
1.07407e-07
-1.65502e-06
1.06078e-07
-1.67791e-06
1.04801e-07
-1.70052e-06
1.03572e-07
-1.72284e-06
1.02391e-07
-1.74488e-06
1.01255e-07
-1.76666e-06
1.00165e-07
-1.78818e-06
9.91216e-08
-1.80946e-06
9.81259e-08
-1.8305e-06
9.71805e-08
-1.85132e-06
9.62888e-08
-1.87192e-06
9.54553e-08
-1.89233e-06
9.46854e-08
-1.91255e-06
9.39852e-08
-1.9326e-06
9.3362e-08
-1.95251e-06
9.28235e-08
-1.97228e-06
9.23779e-08
-1.99195e-06
9.20341e-08
-2.01154e-06
9.18013e-08
-2.03108e-06
9.16887e-08
-2.05059e-06
9.1706e-08
-2.07011e-06
9.18622e-08
-2.08967e-06
9.2166e-08
-2.10931e-06
9.26251e-08
-2.12906e-06
9.32456e-08
-2.14896e-06
9.40323e-08
-2.16906e-06
9.49876e-08
-2.18938e-06
9.61117e-08
-2.20998e-06
9.7402e-08
-2.23088e-06
9.8853e-08
-2.25213e-06
1.00455e-07
-2.27376e-06
1.02197e-07
-2.29579e-06
1.0406e-07
-2.31826e-06
1.06023e-07
-2.34118e-06
1.08062e-07
-2.36456e-06
1.10145e-07
-2.38841e-06
1.12238e-07
-2.41272e-06
1.14299e-07
-2.43748e-06
1.16284e-07
-2.46265e-06
1.1814e-07
-2.48819e-06
1.19814e-07
-2.51405e-06
1.21245e-07
-2.54016e-06
1.22368e-07
-2.56642e-06
1.23116e-07
-2.59274e-06
1.23416e-07
-2.61897e-06
1.23195e-07
-2.645e-06
1.22374e-07
-2.67064e-06
1.20876e-07
-2.69572e-06
1.18619e-07
-2.72003e-06
1.15523e-07
-2.74335e-06
1.11507e-07
-2.76544e-06
1.06489e-07
-2.78604e-06
1.00391e-07
-2.80485e-06
9.31371e-08
-2.82157e-06
8.4652e-08
-2.83589e-06
7.48666e-08
-2.84746e-06
6.37145e-08
-2.85593e-06
5.11318e-08
-2.86095e-06
3.70551e-08
-2.86212e-06
2.14233e-08
-2.85908e-06
4.17509e-09
-2.85144e-06
-1.46673e-08
-2.83884e-06
-3.50584e-08
-2.82087e-06
-5.70227e-08