/*--------------------------------*- C++ -*----------------------------------*\
| =========                 |                                                 |
| \\      /  F ield         | OpenFOAM: The Open Source CFD Toolbox           |
|  \\    /   O peration     | Version:  2.2.x                                 |
|   \\  /    A nd           | Web:      www.OpenFOAM.org                      |
|    \\/     M anipulation  |                                                 |
\*---------------------------------------------------------------------------*/
FoamFile
{
    version     2.0;
    format      ascii;
    class       volVectorField;
    location    "350";
    object      U;
}
// * * * * * * * * * * * * * * * * * * * * * * * * * * * * * * * * * * * * * //

dimensions      [0 1 -1 0 0 0 0];

internalField   nonuniform List<vector> 
12225
(
(9.83972 -1.23842 0)
(9.73873 -0.731491 0)
(9.53702 -0.467338 0)
(9.32325 -0.307412 0)
(9.1245 -0.205966 0)
(8.94096 -0.139607 0)
(8.77092 -0.0949656 0)
(8.61362 -0.0642795 0)
(8.46829 -0.0428471 0)
(8.33402 -0.0276927 0)
(8.20986 -0.0168752 0)
(8.09499 -0.00910093 0)
(7.98864 -0.00349105 0)
(7.89015 0.000565965 0)
(7.79882 0.00352496 0)
(7.71385 0.00590777 0)
(7.62944 0.0092587 0)
(7.5664 -0.0200534 0)
(10.0335 0.447387 0)
(10.0226 0.426925 0)
(9.98838 0.340226 0)
(9.94301 0.270964 0)
(9.89669 0.217784 0)
(9.84869 0.177189 0)
(9.79832 0.146628 0)
(9.74628 0.12363 0)
(9.69344 0.106173 0)
(9.64048 0.0927631 0)
(9.58791 0.0823295 0)
(9.53615 0.0740975 0)
(9.48554 0.0675058 0)
(9.43634 0.062156 0)
(9.38875 0.0578057 0)
(9.34302 0.0545588 0)
(9.30074 0.0535373 0)
(9.26782 0.0669305 0)
(9.9929 0.0267729 0)
(10.0022 -0.00878195 0)
(10.0179 -0.0276009 0)
(10.0248 -0.0224761 0)
(10.0279 -0.011125 0)
(10.0283 0.000178583 0)
(10.0257 0.0102425 0)
(10.0206 0.0187589 0)
(10.0139 0.0256939 0)
(10.0059 0.0311897 0)
(9.99687 0.0354554 0)
(9.98719 0.0386984 0)
(9.97706 0.0411016 0)
(9.96669 0.0428279 0)
(9.95629 0.044049 0)
(9.94625 0.045014 0)
(9.93775 0.0457839 0)
(9.93114 0.0430579 0)
(9.99998 0.0196682 0)
(10.0123 0.0433369 0)
(10.0308 0.0556472 0)
(10.0412 0.0652392 0)
(10.0484 0.0705919 0)
(10.0545 0.0723069 0)
(10.0593 0.0720629 0)
(10.0631 0.0708896 0)
(10.0662 0.0692766 0)
(10.0687 0.0674774 0)
(10.0708 0.0656301 0)
(10.0726 0.0638004 0)
(10.0742 0.0620103 0)
(10.0756 0.0602598 0)
(10.077 0.0585414 0)
(10.0788 0.0568166 0)
(10.0814 0.054747 0)
(10.0851 0.0506053 0)
(10.0023 0.0186621 0)
(10.0144 0.0407763 0)
(10.0302 0.0467699 0)
(10.0404 0.0491313 0)
(10.0486 0.0505125 0)
(10.0562 0.0510156 0)
(10.0631 0.0511561 0)
(10.0693 0.0512295 0)
(10.075 0.0512756 0)
(10.0803 0.0512653 0)
(10.0852 0.0511696 0)
(10.09 0.0509629 0)
(10.0945 0.0506195 0)
(10.099 0.0501104 0)
(10.1035 0.0493908 0)
(10.1082 0.0483472 0)
(10.1132 0.046621 0)
(10.1184 0.0432042 0)
(10.0025 0.0189016 0)
(10.0131 0.0369552 0)
(10.027 0.0431508 0)
(10.0373 0.046441 0)
(10.046 0.0491247 0)
(10.0541 0.0508939 0)
(10.0615 0.0519404 0)
(10.0684 0.0525363 0)
(10.0747 0.0528041 0)
(10.0808 0.0527985 0)
(10.0865 0.0525566 0)
(10.0921 0.0521018 0)
(10.0975 0.0514401 0)
(10.1029 0.0505569 0)
(10.1082 0.0494044 0)
(10.1135 0.0478638 0)
(10.119 0.0456709 0)
(10.1244 0.0423692 0)
(10.0022 0.0165983 0)
(10.0111 0.0316758 0)
(10.0233 0.0386249 0)
(10.0334 0.0425653 0)
(10.0421 0.0454665 0)
(10.0503 0.0473179 0)
(10.0579 0.0483531 0)
(10.065 0.0488785 0)
(10.0716 0.0490596 0)
(10.0779 0.0489729 0)
(10.084 0.0486604 0)
(10.0899 0.048142 0)
(10.0956 0.0474164 0)
(10.1012 0.0464598 0)
(10.1067 0.0452173 0)
(10.1122 0.0435835 0)
(10.1175 0.0413849 0)
(10.1226 0.0384292 0)
(10.0019 0.0146418 0)
(10.0095 0.0280137 0)
(10.0203 0.035262 0)
(10.0299 0.0394681 0)
(10.0385 0.0424201 0)
(10.0465 0.0443404 0)
(10.0541 0.0454635 0)
(10.0613 0.0460632 0)
(10.068 0.0462983 0)
(10.0744 0.0462452 0)
(10.0806 0.0459451 0)
(10.0865 0.0454174 0)
(10.0923 0.0446613 0)
(10.0979 0.043655 0)
(10.1035 0.0423525 0)
(10.1088 0.0406766 0)
(10.114 0.038525 0)
(10.1188 0.0358418 0)
(10.0017 0.0130527 0)
(10.0083 0.025045 0)
(10.0178 0.0321869 0)
(10.0269 0.0364864 0)
(10.0352 0.0394639 0)
(10.0431 0.0414324 0)
(10.0506 0.0426172 0)
(10.0576 0.0432628 0)
(10.0644 0.0435218 0)
(10.0708 0.0434735 0)
(10.077 0.043162 0)
(10.083 0.0426091 0)
(10.0888 0.0418171 0)
(10.0944 0.0407697 0)
(10.0998 0.0394317 0)
(10.1051 0.0377512 0)
(10.11 0.0356716 0)
(10.1147 0.0332058 0)
(10.0015 0.0114928 0)
(10.0071 0.0220814 0)
(10.0154 0.0289028 0)
(10.0238 0.033196 0)
(10.0317 0.0361618 0)
(10.0393 0.0381487 0)
(10.0466 0.0393722 0)
(10.0536 0.0400484 0)
(10.0602 0.0403222 0)
(10.0666 0.0402747 0)
(10.0728 0.0399523 0)
(10.0787 0.0393793 0)
(10.0845 0.0385623 0)
(10.09 0.0374921 0)
(10.0953 0.0361474 0)
(10.1004 0.0345002 0)
(10.1052 0.0325299 0)
(10.1097 0.0302871 0)
(10.0013 0.00993856 0)
(10.006 0.0191215 0)
(10.0132 0.0254593 0)
(10.0208 0.0296271 0)
(10.0282 0.0325121 0)
(10.0354 0.0344636 0)
(10.0424 0.0356854 0)
(10.0492 0.036365 0)
(10.0557 0.0366361 0)
(10.062 0.0365791 0)
(10.068 0.0362415 0)
(10.0739 0.0356503 0)
(10.0795 0.0348169 0)
(10.0849 0.033741 0)
(10.0901 0.0324151 0)
(10.095 0.0308319 0)
(10.0996 0.0289964 0)
(10.1039 0.0269738 0)
(10.0011 0.00840245 0)
(10.005 0.0162032 0)
(10.0112 0.0219042 0)
(10.018 0.0258108 0)
(10.0248 0.0285326 0)
(10.0316 0.0303864 0)
(10.0383 0.0315589 0)
(10.0448 0.0322089 0)
(10.0511 0.0324557 0)
(10.0571 0.0323761 0)
(10.063 0.0320179 0)
(10.0687 0.0314107 0)
(10.0741 0.0305712 0)
(10.0793 0.0295077 0)
(10.0843 0.0282254 0)
(10.089 0.0267324 0)
(10.0934 0.0250485 0)
(10.0975 0.0232401 0)
(10.0009 0.00689992 0)
(10.0042 0.0133459 0)
(10.0094 0.0182729 0)
(10.0155 0.021776 0)
(10.0217 0.0242407 0)
(10.028 0.0259254 0)
(10.0343 0.0269923 0)
(10.0404 0.0275727 0)
(10.0464 0.0277686 0)
(10.0523 0.0276505 0)
(10.0579 0.0272653 0)
(10.0633 0.0266443 0)
(10.0686 0.0258089 0)
(10.0735 0.0247747 0)
(10.0783 0.0235561 0)
(10.0828 0.0221706 0)
(10.0869 0.0206449 0)
(10.0909 0.0190391 0)
(10.0008 0.00543749 0)
(10.0035 0.0105508 0)
(10.0079 0.0145912 0)
(10.0132 0.0175519 0)
(10.0189 0.0196546 0)
(10.0247 0.0210888 0)
(10.0306 0.0219854 0)
(10.0364 0.022449 0)
(10.042 0.0225628 0)
(10.0476 0.0223882 0)
(10.0529 0.0219687 0)
(10.0581 0.021336 0)
(10.0631 0.0205143 0)
(10.0678 0.0195236 0)
(10.0723 0.0183836 0)
(10.0766 0.0171161 0)
(10.0805 0.0157481 0)
(10.0843 0.0143312 0)
(10.0006 0.00401097 0)
(10.003 0.00780364 0)
(10.0067 0.0108666 0)
(10.0114 0.013156 0)
(10.0165 0.0147858 0)
(10.0218 0.0158798 0)
(10.0272 0.0165343 0)
(10.0327 0.0168271 0)
(10.038 0.0168219 0)
(10.0433 0.0165685 0)
(10.0484 0.0161045 0)
(10.0533 0.0154593 0)
(10.058 0.0146568 0)
(10.0625 0.0137185 0)
(10.0667 0.0126649 0)
(10.0708 0.0115177 0)
(10.0745 0.0103012 0)
(10.0782 0.00905745 0)
(10.0006 0.00260326 0)
(10.0025 0.00506938 0)
(10.0058 0.00707589 0)
(10.0099 0.00857653 0)
(10.0145 0.00962158 0)
(10.0194 0.0102812 0)
(10.0245 0.0106166 0)
(10.0295 0.0106794 0)
(10.0346 0.0105133 0)
(10.0395 0.0101541 0)
(10.0443 0.00963086 0)
(10.049 0.00896749 0)
(10.0534 0.00818468 0)
(10.0577 0.00730143 0)
(10.0618 0.00633602 0)
(10.0656 0.00530684 0)
(10.0692 0.0042335 0)
(10.0727 0.00314924 0)
(10.0005 0.00118249 0)
(10.0022 0.00228899 0)
(10.0052 0.00315969 0)
(10.0089 0.00376317 0)
(10.0131 0.00411559 0)
(10.0177 0.00424669 0)
(10.0224 0.00418515 0)
(10.0272 0.00395676 0)
(10.0319 0.00358455 0)
(10.0366 0.00308845 0)
(10.0412 0.00248581 0)
(10.0456 0.001792 0)
(10.0498 0.00102113 0)
(10.0539 0.000186639 0)
(10.0578 -0.000698363 0)
(10.0614 -0.00162085 0)
(10.0649 -0.00256703 0)
(10.0683 -0.0035116 0)
(10.0005 -0.000215081 0)
(10.0021 -0.000458303 0)
(10.0049 -0.000743232 0)
(10.0084 -0.00107808 0)
(10.0124 -0.0014649 0)
(10.0168 -0.00190576 0)
(10.0213 -0.00240162 0)
(10.0259 -0.00295131 0)
(10.0305 -0.00355228 0)
(10.035 -0.00420099 0)
(10.0394 -0.00489335 0)
(10.0437 -0.00562452 0)
(10.0477 -0.006389 0)
(10.0517 -0.00718067 0)
(10.0554 -0.00799292 0)
(10.0589 -0.00881877 0)
(10.0623 -0.00965023 0)
(10.0656 -0.0104693 0)
(10.0005 -0.00150557 0)
(10.0021 -0.00300388 0)
(10.0049 -0.00437058 0)
(10.0084 -0.00558232 0)
(10.0125 -0.00665593 0)
(10.0168 -0.00762553 0)
(10.0213 -0.00852086 0)
(10.0259 -0.00936395 0)
(10.0304 -0.0101718 0)
(10.0349 -0.0109575 0)
(10.0392 -0.0117302 0)
(10.0434 -0.0124955 0)
(10.0474 -0.0132566 0)
(10.0512 -0.0140148 0)
(10.0549 -0.0147696 0)
(10.0584 -0.0155196 0)
(10.0617 -0.0162619 0)
(10.0649 -0.0169843 0)
(10.0005 -0.00268985 0)
(10.0022 -0.00535422 0)
(10.0052 -0.00771623 0)
(10.0089 -0.00970698 0)
(10.0131 -0.0113709 0)
(10.0176 -0.0127854 0)
(10.0222 -0.0140097 0)
(10.0268 -0.0150876 0)
(10.0314 -0.016055 0)
(10.0358 -0.0169402 0)
(10.0402 -0.0177643 0)
(10.0443 -0.0185425 0)
(10.0483 -0.0192854 0)
(10.0522 -0.0200007 0)
(10.0558 -0.0206935 0)
(10.0592 -0.0213669 0)
(10.0625 -0.0220219 0)
(10.0657 -0.0226506 0)
(10.0005 -0.00381231 0)
(10.0024 -0.00762434 0)
(10.0057 -0.0109384 0)
(10.0098 -0.0136189 0)
(10.0143 -0.0157793 0)
(10.019 -0.0175605 0)
(10.0237 -0.0190499 0)
(10.0285 -0.0203112 0)
(10.0331 -0.021399 0)
(10.0377 -0.0223569 0)
(10.0421 -0.0232164 0)
(10.0463 -0.0240002 0)
(10.0503 -0.0247254 0)
(10.0541 -0.0254047 0)
(10.0578 -0.0260478 0)
(10.0612 -0.0266623 0)
(10.0645 -0.0272531 0)
(10.0676 -0.0278181 0)
(10.0005 -0.00487594 0)
(10.0026 -0.0098911 0)
(10.0063 -0.0141403 0)
(10.0109 -0.0174018 0)
(10.0158 -0.019947 0)
(10.0208 -0.0220021 0)
(10.0258 -0.0236748 0)
(10.0307 -0.0250471 0)
(10.0355 -0.0261932 0)
(10.0401 -0.0271699 0)
(10.0446 -0.0280171 0)
(10.0488 -0.0287643 0)
(10.0528 -0.029434 0)
(10.0567 -0.0300436 0)
(10.0603 -0.0306068 0)
(10.0638 -0.0311348 0)
(10.067 -0.0316355 0)
(10.0701 -0.032109 0)
(10.0005 -0.00584763 0)
(10.0027 -0.0122315 0)
(10.0071 -0.017422 0)
(10.0123 -0.0211665 0)
(10.0176 -0.02403 0)
(10.0229 -0.0263144 0)
(10.0281 -0.0281343 0)
(10.0333 -0.029599 0)
(10.0382 -0.0308051 0)
(10.0429 -0.0318175 0)
(10.0474 -0.0326793 0)
(10.0517 -0.0334219 0)
(10.0558 -0.0340697 0)
(10.0596 -0.0346421 0)
(10.0632 -0.0351555 0)
(10.0666 -0.035625 0)
(10.0698 -0.0360652 0)
(10.0729 -0.0364882 0)
(10.0002 -0.00665223 0)
(10.0027 -0.0146944 0)
(10.0079 -0.0206208 0)
(10.0138 -0.0245721 0)
(10.0196 -0.0276076 0)
(10.0251 -0.0299894 0)
(10.0305 -0.0317987 0)
(10.0358 -0.0331898 0)
(10.0408 -0.0342961 0)
(10.0455 -0.0351987 0)
(10.05 -0.0359483 0)
(10.0543 -0.0365809 0)
(10.0583 -0.0371227 0)
(10.0621 -0.0375932 0)
(10.0657 -0.038008 0)
(10.0691 -0.0383818 0)
(10.0722 -0.0387289 0)
(10.0751 -0.0390597 0)
(9.99982 -0.00724338 0)
(10.0024 -0.0181699 0)
(10.0087 -0.0247405 0)
(10.0153 -0.0286784 0)
(10.0213 -0.0319692 0)
(10.0271 -0.0346902 0)
(10.0326 -0.036796 0)
(10.0379 -0.0384272 0)
(10.0429 -0.0397095 0)
(10.0476 -0.0407185 0)
(10.0521 -0.0415091 0)
(10.0563 -0.0421262 0)
(10.0602 -0.0426054 0)
(10.0639 -0.0429741 0)
(10.0673 -0.0432546 0)
(10.0705 -0.0434686 0)
(10.0735 -0.0436447 0)
(10.0764 -0.0438266 0)
(9.99841 -0.00503134 0)
(10.0007 -0.0203128 0)
(10.0088 -0.0271398 0)
(10.0159 -0.0298573 0)
(10.0218 -0.0318136 0)
(10.0275 -0.0333258 0)
(10.0331 -0.0345331 0)
(10.0384 -0.0356174 0)
(10.0433 -0.0366391 0)
(10.0479 -0.0375941 0)
(10.0522 -0.0384726 0)
(10.0562 -0.0392702 0)
(10.0599 -0.0399842 0)
(10.0634 -0.0406128 0)
(10.0666 -0.041155 0)
(10.0696 -0.0416126 0)
(10.0722 -0.0419965 0)
(10.0746 -0.0423328 0)
(9.99479 -0.00319596 0)
(9.99582 -0.0256969 0)
(10.0072 -0.0394921 0)
(10.0157 -0.0487659 0)
(10.0217 -0.0546812 0)
(10.0271 -0.057665 0)
(10.0321 -0.0588196 0)
(10.0366 -0.0589968 0)
(10.0407 -0.0586423 0)
(10.0444 -0.0579944 0)
(10.0478 -0.0571988 0)
(10.0508 -0.0563448 0)
(10.0537 -0.0554824 0)
(10.0562 -0.0546352 0)
(10.0585 -0.053808 0)
(10.0605 -0.0529924 0)
(10.0622 -0.0521824 0)
(10.0638 -0.0513864 0)
(9.98519 0.00576077 0)
(9.98186 0.0248542 0)
(9.99408 0.0364922 0)
(10.0036 0.0321142 0)
(10.0108 0.0222753 0)
(10.0166 0.0122485 0)
(10.021 0.00308503 0)
(10.0239 -0.00502053 0)
(10.0257 -0.0119989 0)
(10.0266 -0.0178919 0)
(10.0269 -0.0228126 0)
(10.0265 -0.0268925 0)
(10.0256 -0.0302554 0)
(10.0243 -0.0330071 0)
(10.0227 -0.0352298 0)
(10.0207 -0.036974 0)
(10.0184 -0.0382551 0)
(10.0153 -0.0389682 0)
(10.0137 -0.317346 0)
(10.0102 -0.326333 0)
(9.99892 -0.271534 0)
(9.98278 -0.224904 0)
(9.96827 -0.188184 0)
(9.95426 -0.158861 0)
(9.93912 -0.135794 0)
(9.92256 -0.117787 0)
(9.90477 -0.10367 0)
(9.886 -0.0925099 0)
(9.86642 -0.0836121 0)
(9.84623 -0.0764558 0)
(9.82563 -0.0706464 0)
(9.80479 -0.0658808 0)
(9.78387 -0.0619184 0)
(9.76304 -0.0585476 0)
(9.74248 -0.0555394 0)
(9.72154 -0.0522783 0)
(9.95412 0.913091 0)
(9.95405 0.561 0)
(9.86623 0.375412 0)
(9.75285 0.258521 0)
(9.63876 0.180484 0)
(9.52763 0.126927 0)
(9.41973 0.0891597 0)
(9.31584 0.0619514 0)
(9.2166 0.0420623 0)
(9.12226 0.0273714 0)
(9.03283 0.0164349 0)
(8.94822 0.00824652 0)
(8.86829 0.00209284 0)
(8.79286 -0.00253859 0)
(8.72175 -0.0060177 0)
(8.65476 -0.00860481 0)
(8.59197 -0.0104449 0)
(8.53144 -0.0113827 0)
(0.0190259 -0.050331 0)
(0.0443235 -0.0453632 0)
(0.0611244 -0.0283142 0)
(0.0662576 -0.00795923 0)
(0.056981 0.0125954 0)
(0.0371154 0.0306375 0)
(0.00849054 0.0447516 -2.52571e-19)
(-0.0280251 0.0533588 2.29982e-19)
(-0.0668549 0.0568099 0)
(-0.108554 0.0580898 1.66352e-19)
(-0.151991 0.058473 0)
(-0.196608 0.0584019 0)
(-0.24204 0.0580297 0)
(-0.28801 0.0574178 -1.04921e-19)
(-0.334292 0.0566072 0)
(-0.380643 0.0556397 0)
(-0.426912 0.0545802 8.23466e-20)
(-0.472995 0.0534666 0)
(-0.518778 0.0523074 0)
(-0.564169 0.0511112 0)
(-0.609087 0.0498885 -6.47857e-20)
(-0.653468 0.0486497 0)
(-0.697258 0.0474047 -5.8927e-20)
(-0.740415 0.0461625 0)
(-0.782906 0.0449309 0)
(-0.824709 0.0437167 -5.22904e-20)
(-0.865807 0.0425256 0)
(-0.906194 0.0413621 4.88681e-20)
(-0.945868 0.04023 0)
(-0.984832 0.0391323 -4.60194e-20)
(-1.0231 0.0380711 0)
(-1.06067 0.0370478 0)
(-1.09758 0.0360635 0)
(-1.13384 0.0351187 0)
(-1.16946 0.0342133 0)
(-1.20448 0.0333472 3.97534e-20)
(-1.23892 0.0325199 0)
(-1.27279 0.0317305 -7.63516e-20)
(-1.30612 0.0309781 0)
(-1.33894 0.0302613 7.35439e-20)
(-1.37126 0.0295786 0)
(-1.40312 0.0289282 0)
(-1.43453 0.0283081 -6.98441e-20)
(-1.46552 0.0277164 0)
(-1.49611 0.0271511 -6.76474e-20)
(-1.52632 0.0266104 6.66155e-20)
(-1.55618 0.0260924 0)
(-1.58569 0.0255958 6.4665e-20)
(-1.61487 0.0251191 6.37399e-20)
(-1.64375 0.0246611 0)
(-1.67233 0.0242209 0)
(-1.70063 0.0237973 0)
(-1.72867 0.0233895 0)
(-1.75644 0.0229966 0)
(-1.78397 0.0226177 -5.87265e-20)
(-1.81126 0.0222524 0)
(-1.83834 0.0219 5.72124e-20)
(-1.86519 0.0215604 0)
(-1.89185 0.0212335 0)
(-1.91833 0.0209196 -5.5047e-20)
(-1.94462 0.0206194 0)
(-1.97076 0.0203338 5.36609e-20)
(-1.99676 0.0200639 0)
(-2.02263 0.019811 0)
(-2.04838 0.0195766 0)
(-2.07405 0.0193621 -5.09947e-20)
(-2.09965 0.0191686 0)
(-2.1252 0.0189975 0)
(-2.15075 0.0188499 -4.90669e-20)
(-2.17631 0.018727 0)
(-2.20193 0.0186305 -4.78092e-20)
(-2.22762 0.0185616 0)
(-2.25344 0.0185218 0)
(-2.27942 0.0185121 0)
(-2.30559 0.0185329 4.53489e-20)
(-2.33202 0.0185841 0)
(-2.35873 0.0186652 0)
(-2.38578 0.0187752 4.35476e-20)
(-2.41321 0.0189128 4.29556e-20)
(-2.44106 0.0190764 0)
(-2.46939 0.019264 4.17848e-20)
(-2.49822 0.0194732 0)
(-2.52759 0.0197009 8.12658e-20)
(-2.55755 0.0199436 0)
(-2.58811 0.0201966 7.90022e-20)
(-2.61929 0.0204548 0)
(-2.6511 0.0207122 -7.67803e-20)
(-2.68356 0.0209623 0)
(-2.71665 0.021198 0)
(-2.75035 0.0214123 0)
(-2.78465 0.0215974 7.246e-20)
(-2.81948 0.0217458 0)
(-2.85479 0.0218494 -7.03527e-20)
(-2.89051 0.0219001 0)
(-2.92654 0.0218894 6.82659e-20)
(-2.96278 0.0218085 6.72245e-20)
(-2.99908 0.0216484 6.61804e-20)
(-3.03531 0.0214004 0)
(-3.07131 0.0210564 0)
(-3.10688 0.0206081 0)
(-3.14182 0.0200478 0)
(-3.1759 0.0193679 0)
(-3.20888 0.018561 0)
(-3.2405 0.0176207 0)
(-3.27047 0.0165408 0)
(-3.29848 0.0153154 -5.5844e-20)
(-3.3242 0.0139384 -5.44613e-20)
(-3.34731 0.0124025 0)
(-3.36745 0.0106961 0)
(-3.38429 0.00880145 0)
(-3.39741 0.00670489 -4.8006e-20)
(-3.40635 0.00440957 0)
(-3.41059 0.00194793 0)
(-3.40982 -0.000661092 0)
(-3.40365 -0.00343281 0)
(-3.39168 -0.00637868 3.65045e-20)
(-3.37349 -0.00949944 0)
(-3.34868 -0.0127939 0)
(-3.31684 -0.0162593 -2.69135e-20)
(-3.27758 -0.0198921 2.31375e-20)
(-3.23054 -0.0236869 0)
(-3.17534 -0.0276364 1.45484e-20)
(-3.11167 -0.031732 0)
(-3.03925 -0.0359636 -4.35352e-21)
(-2.95782 -0.0403183 0)
(-2.86719 -0.0447796 0)
(-2.76724 -0.0493302 0)
(-2.65789 -0.0539517 0)
(-2.53918 -0.0586212 0)
(-2.41121 -0.0633128 -7.90046e-20)
(-2.27419 -0.0680044 -9.88558e-20)
(-2.12844 -0.0726767 0)
(-1.97442 -0.0773022 0)
(-1.81268 -0.0818326 0)
(-1.64388 -0.0862134 2.01377e-19)
(-1.46878 -0.0903967 0)
(-1.2882 -0.094362 0)
(-1.10306 -0.0982023 0)
(-0.914305 -0.102221 3.65136e-19)
(-0.722807 -0.10686 -4.23134e-19)
(-0.529801 -0.112034 0)
(-0.335901 -0.117148 0)
(-0.147249 -0.119746 -6.83679e-19)
(0.0572002 -0.115401 -7.1735e-19)
(0.241055 -0.107779 0)
(0.420198 -0.100331 0)
(0.592338 -0.0932108 5.82689e-19)
(0.756814 -0.0863935 -5.53475e-19)
(0.913179 -0.0798625 0)
(1.06115 -0.0736187 0)
(1.20054 -0.0676651 -4.90292e-19)
(1.3313 -0.0620151 0)
(1.45351 -0.0566886 0)
(1.56731 -0.0516955 -4.4932e-19)
(1.67295 -0.0470383 0)
(1.77076 -0.0427193 -4.29516e-19)
(1.86108 -0.0387353 0)
(1.94433 -0.0350746 0)
(2.02091 -0.0317225 0)
(2.09128 -0.0286651 4.01546e-19)
(2.15587 -0.0258859 0)
(2.2151 -0.0233674 0)
(2.26937 -0.0210901 0)
(2.31907 -0.0190299 0)
(2.36453 -0.0171654 0)
(2.40612 -0.0154771 0)
(2.44412 -0.0139448 3.75064e-19)
(2.47882 -0.0125502 3.72785e-19)
(2.51046 -0.0112757 0)
(2.53921 -0.0100982 0)
(2.56518 -0.00899019 0)
(2.58843 -0.00792154 -3.66508e-19)
(2.60892 -0.0068539 0)
(2.62642 -0.00572443 7.3047e-19)
(2.64046 -0.00444033 -7.30552e-19)
(2.65008 -0.00284902 -7.31987e-19)
(2.65385 -0.000594056 7.34353e-19)
(2.6474 0.00337612 -7.39284e-19)
(2.62542 0.011606 7.49835e-19)
(2.52423 0.0380823 0)
(0.00464688 -0.0861185 0)
(0.00650032 -0.0533413 0)
(-0.00432732 -0.0136579 2.00135e-19)
(-0.0217319 0.0228464 0)
(-0.0432047 0.0536754 -1.30708e-19)
(-0.0682932 0.0783477 -1.18689e-19)
(-0.0964497 0.0970059 -5.50951e-20)
(-0.127527 0.110033 -5.18876e-20)
(-0.161225 0.118571 0)
(-0.197335 0.124121 -4.5986e-20)
(-0.235371 0.127651 0)
(-0.274862 0.129783 0)
(-0.315417 0.130888 7.71365e-20)
(-0.35673 0.131194 3.66721e-20)
(-0.398557 0.130856 -6.94592e-20)
(-0.440698 0.130001 -6.61667e-20)
(-0.482976 0.128731 -3.17143e-20)
(-0.52524 0.127125 0)
(-0.567358 0.125241 0)
(-0.609223 0.12313 0)
(-0.650745 0.120839 -2.67996e-20)
(-0.691851 0.118406 0)
(-0.73248 0.115869 7.55775e-20)
(-0.772584 0.11326 0)
(-0.812124 0.110607 0)
(-0.851072 0.107935 2.31378e-20)
(-0.889407 0.105264 0)
(-0.927114 0.102613 -2.19824e-20)
(-0.964186 0.0999978 -4.27326e-20)
(-1.00062 0.0974299 2.09908e-20)
(-1.03642 0.0949199 0)
(-1.07159 0.0924759 0)
(-1.10615 0.0901042 0)
(-1.1401 0.0878095 -3.85767e-20)
(-1.17346 0.0855949 -3.78989e-20)
(-1.20626 0.0834626 -1.87215e-20)
(-1.2385 0.0814134 0)
(-1.27021 0.0794474 3.62686e-20)
(-1.30141 0.0775638 0)
(-1.33212 0.075761 -3.52159e-20)
(-1.36237 0.0740368 0)
(-1.39216 0.0723886 0)
(-1.42153 0.0708132 3.38203e-20)
(-1.4505 0.0693071 0)
(-1.47907 0.0678666 9.865e-20)
(-1.50729 0.0664878 -3.25969e-20)
(-1.53515 0.0651671 0)
(-1.56268 0.0639009 -3.18557e-20)
(-1.5899 0.0626856 -3.15035e-20)
(-1.61682 0.0615181 0)
(-1.64345 0.0603955 0)
(-1.66982 0.0593152 0)
(-1.69593 0.0582749 0)
(-1.72179 0.0572727 0)
(-1.74743 0.0563069 2.95861e-20)
(-1.77284 0.0553761 5.83121e-20)
(-1.79804 0.0544796 -2.90029e-20)
(-1.82305 0.0536167 0)
(-1.84786 0.0527873 5.66169e-20)
(-1.87251 0.0519919 -2.79048e-20)
(-1.89699 0.0512315 0)
(-1.92133 0.0505075 -2.7625e-20)
(-1.94554 0.0498219 0)
(-1.96964 0.0491772 0)
(-1.99364 0.0485762 -5.34303e-20)
(-2.01756 0.0480215 2.65835e-20)
(-2.04143 0.0475162 -5.24127e-20)
(-2.06527 0.0470633 5.19109e-20)
(-2.0891 0.0466658 2.58296e-20)
(-2.11296 0.0463268 0)
(-2.13687 0.0460497 2.53389e-20)
(-2.16087 0.0458375 0)
(-2.18499 0.0456931 0)
(-2.20926 0.0456187 0)
(-2.23374 0.0456154 2.41373e-20)
(-2.25845 0.0456837 0)
(-2.28344 0.0458227 4.75983e-20)
(-2.30875 0.0460309 -7.08423e-20)
(-2.33442 0.0463054 -2.34753e-20)
(-2.36049 0.0466426 0)
(-2.38699 0.0470376 -2.30361e-20)
(-2.41397 0.0474842 0)
(-2.44145 0.0479747 -4.52167e-20)
(-2.46947 0.0485002 0)
(-2.49804 0.0490499 -4.4383e-20)
(-2.52718 0.0496116 8.74028e-20)
(-2.55691 0.0501714 4.35688e-20)
(-2.5872 0.0507137 0)
(-2.61806 0.0512218 0)
(-2.64946 0.0516777 0)
(-2.68136 0.0520625 -4.19785e-20)
(-2.71371 0.0523562 0)
(-2.74644 0.0525382 4.11853e-20)
(-2.77948 0.052587 0)
(-2.81271 0.0524804 -1.2062e-19)
(-2.84604 0.0521958 -3.99592e-20)
(-2.87931 0.0517101 -3.95311e-20)
(-2.91237 0.051001 0)
(-2.94505 0.0500468 0)
(-2.97716 0.0488267 0)
(-3.00847 0.0473205 0)
(-3.03875 0.0455084 0)
(-3.06774 0.0433718 -7.27386e-20)
(-3.09518 0.0408937 -7.15456e-20)
(-3.12077 0.0380591 0)
(-3.1442 0.0348548 3.45187e-20)
(-3.16512 0.0312698 3.37404e-20)
(-3.18319 0.0272937 0)
(-3.19807 0.02291 6.39669e-20)
(-3.2094 0.0180913 0)
(-3.21679 0.0128096 -3.00453e-20)
(-3.2197 0.00707035 0)
(-3.21782 0.000928196 0)
(-3.21078 -0.00558076 5.21331e-20)
(-3.19817 -0.0124656 0)
(-3.17958 -0.0197248 -2.25249e-20)
(-3.1546 -0.0273471 0)
(-3.12284 -0.0353162 0)
(-3.08389 -0.0436111 -1.724e-20)
(-3.03739 -0.0522069 -1.397e-20)
(-2.98296 -0.0610729 0)
(-2.92027 -0.0701723 9.86623e-21)
(-2.849 -0.0794625 0)
(-2.76889 -0.0888947 -4.01974e-21)
(-2.67971 -0.098412 2.41946e-23)
(-2.58128 -0.107949 0)
(-2.47353 -0.117437 0)
(-2.35641 -0.126799 0)
(-2.22999 -0.135951 0)
(-2.09443 -0.144801 4.13252e-20)
(-1.94998 -0.153257 1.46326e-19)
(-1.79703 -0.161227 0)
(-1.63608 -0.168617 0)
(-1.46774 -0.175316 0)
(-1.29273 -0.181214 -9.07832e-20)
(-1.11188 -0.186239 0)
(-0.926101 -0.190368 0)
(-0.736387 -0.193671 2.43169e-19)
(-0.54374 -0.196396 1.30207e-19)
(-0.349056 -0.198888 1.50294e-19)
(-0.153372 -0.200807 0)
(0.0456548 -0.20167 0)
(0.235799 -0.200066 1.73859e-19)
(0.423481 -0.193957 -1.70151e-19)
(0.60363 -0.185115 0)
(0.777245 -0.175812 0)
(0.943735 -0.166213 -1.83565e-19)
(1.10262 -0.156445 5.52609e-19)
(1.25355 -0.146606 0)
(1.39628 -0.1368 0)
(1.53069 -0.127126 1.91282e-19)
(1.65678 -0.117681 0)
(1.77463 -0.108554 3.8581e-19)
(1.88444 -0.0998196 -1.93102e-19)
(1.98646 -0.09153 0)
(2.08101 -0.083724 1.98118e-19)
(2.16846 -0.0764256 3.96505e-19)
(2.24919 -0.0696427 0)
(2.32362 -0.0633705 0)
(2.39217 -0.0575976 -2.02068e-19)
(2.45524 -0.052305 0)
(2.51324 -0.0474692 4.06313e-19)
(2.56656 -0.043063 0)
(2.61558 -0.0390522 0)
(2.66065 -0.0354028 0)
(2.70207 -0.0320821 0)
(2.74014 -0.0290541 -2.07299e-19)
(2.77511 -0.0262826 -2.07963e-19)
(2.80719 -0.0237295 0)
(2.83659 -0.0213491 0)
(2.8634 -0.0190845 0)
(2.88769 -0.0168683 2.10712e-19)
(2.90941 -0.0146087 0)
(2.92839 -0.0121617 -4.24816e-19)
(2.94422 -0.00930049 4.26976e-19)
(2.95608 -0.00564854 4.29742e-19)
(2.96252 -0.000371914 4.32026e-19)
(2.96026 0.00864441 4.36117e-19)
(2.94769 0.0267183 4.4089e-19)
(2.89549 0.0695885 0)
(-0.0128128 -0.0715033 0)
(-0.0280517 -0.0160831 0)
(-0.0505667 0.0322354 -1.22112e-19)
(-0.0752426 0.071846 -9.05245e-20)
(-0.101115 0.105077 7.65857e-20)
(-0.127795 0.132609 6.8724e-20)
(-0.155569 0.15469 6.7245e-23)
(-0.184778 0.171667 0)
(-0.215639 0.1842 0)
(-0.248153 0.193153 0)
(-0.282131 0.199317 0)
(-0.317315 0.20332 0)
(-0.353446 0.205632 -1.3784e-19)
(-0.390288 0.206599 0)
(-0.42764 0.20648 4.19694e-20)
(-0.465327 0.205476 4.0204e-20)
(-0.503199 0.203749 0)
(-0.541124 0.20143 0)
(-0.578987 0.198626 0)
(-0.616694 0.195428 0)
(-0.654163 0.191916 3.33525e-20)
(-0.691325 0.188159 0)
(-0.728123 0.184218 -3.13292e-20)
(-0.76451 0.180145 0)
(-0.800447 0.175987 0)
(-0.835903 0.171784 0)
(-0.870856 0.167572 -5.60835e-20)
(-0.905287 0.163381 0)
(-0.939184 0.159234 2.68609e-20)
(-0.972541 0.155153 -5.2395e-20)
(-1.00535 0.151157 0)
(-1.03763 0.147257 0)
(-1.06937 0.143466 0)
(-1.10057 0.139793 2.43498e-20)
(-1.13127 0.136242 2.39368e-20)
(-1.16145 0.132818 0)
(-1.19115 0.129523 0)
(-1.22036 0.126358 -4.54879e-20)
(-1.24912 0.123322 -4.48312e-20)
(-1.27744 0.120414 4.4208e-20)
(-1.30532 0.117629 0)
(-1.3328 0.114964 0)
(-1.35988 0.112416 0)
(-1.38659 0.109978 0)
(-1.41294 0.107646 -4.16714e-20)
(-1.43895 0.105413 -4.10303e-20)
(-1.46463 0.103275 4.05746e-20)
(-1.49 0.101227 0)
(-1.51507 0.0992617 0)
(-1.53986 0.0973753 0)
(-1.56438 0.0955628 0)
(-1.58864 0.0938201 -3.85169e-20)
(-1.61265 0.0921433 0)
(-1.63643 0.0905294 0)
(-1.65998 0.0889757 -3.74165e-20)
(-1.68332 0.0874801 -3.72166e-20)
(-1.70645 0.0860413 0)
(-1.72939 0.0846583 7.2774e-20)
(-1.75214 0.0833313 -3.6203e-20)
(-1.77472 0.0820609 3.58768e-20)
(-1.79715 0.0808488 0)
(-1.81942 0.0796973 0)
(-1.84156 0.0786093 0)
(-1.86359 0.0775884 0)
(-1.88551 0.0766385 3.4315e-20)
(-1.90735 0.0757638 6.7744e-20)
(-1.92912 0.0749687 3.37176e-20)
(-1.95085 0.0742577 -3.34243e-20)
(-1.97256 0.0736358 0)
(-1.99428 0.073108 6.5409e-20)
(-2.01604 0.0726791 6.48419e-20)
(-2.03786 0.0723538 6.42818e-20)
(-2.05979 0.0721359 -6.37287e-20)
(-2.08184 0.0720283 0)
(-2.10406 0.0720327 -9.41164e-20)
(-2.12649 0.0721493 0)
(-2.14917 0.072377 3.06439e-20)
(-2.17212 0.0727131 3.06939e-20)
(-2.1954 0.0731534 0)
(-2.21904 0.0736914 0)
(-2.24307 0.0743191 5.95947e-20)
(-2.26752 0.0750257 0)
(-2.29244 0.0757985 5.86533e-20)
(-2.31785 0.0766222 0)
(-2.34376 0.0774791 -5.77513e-20)
(-2.37019 0.0783489 -1.14961e-19)
(-2.39714 0.0792089 0)
(-2.42463 0.0800337 0)
(-2.45263 0.0807958 0)
(-2.48111 0.0814659 -5.56483e-20)
(-2.51006 0.0820128 0)
(-2.53941 0.0824037 -5.48467e-20)
(-2.56911 0.0826041 0)
(-2.59907 0.0825785 0)
(-2.62919 0.0822901 1.07566e-19)
(-2.65937 0.0817015 0)
(-2.68947 0.0807751 5.27902e-20)
(-2.71935 0.0794738 0)
(-2.74882 0.0777619 5.18696e-20)
(-2.7777 0.0756047 0)
(-2.80578 0.0729687 0)
(-2.83283 0.0698214 0)
(-2.85859 0.066132 1.4899e-19)
(-2.8828 0.0618723 4.90225e-20)
(-2.90518 0.0570171 0)
(-2.9254 0.0515442 0)
(-2.94312 0.0454345 0)
(-2.95802 0.0386703 0)
(-2.96975 0.0312299 -4.4188e-20)
(-2.97797 0.023084 8.61614e-20)
(-2.98227 0.014209 4.14932e-20)
(-2.98214 0.00463653 -8.03106e-20)
(-2.97735 -0.00557331 -7.67957e-20)
(-2.96746 -0.016404 -3.60709e-20)
(-2.95207 -0.0278542 0)
(-2.93078 -0.0399114 -6.40725e-20)
(-2.90318 -0.0525529 0)
(-2.86889 -0.0657482 5.3554e-20)
(-2.82749 -0.0794595 2.30906e-20)
(-2.77862 -0.0936407 0)
(-2.7219 -0.108236 -3.44079e-20)
(-2.65699 -0.12318 -1.2597e-20)
(-2.58357 -0.138394 0)
(-2.50139 -0.153791 -6.62956e-21)
(-2.41019 -0.169265 2.322e-21)
(-2.30981 -0.184698 0)
(-2.20015 -0.199962 0)
(-2.08119 -0.21492 0)
(-1.95299 -0.229416 0)
(-1.8157 -0.243286 -4.7266e-20)
(-1.66962 -0.256362 -6.15004e-20)
(-1.51514 -0.268462 0)
(-1.35278 -0.279405 0)
(-1.18319 -0.289005 0)
(-1.00714 -0.297106 0)
(-0.825528 -0.303642 0)
(-0.639349 -0.308624 0)
(-0.449654 -0.312127 -1.43251e-19)
(-0.257419 -0.314316 -4.32272e-21)
(-0.0631667 -0.314964 0)
(0.129855 -0.313378 0)
(0.319479 -0.309214 -1.75066e-19)
(0.503413 -0.302284 0)
(0.682668 -0.292417 1.89882e-19)
(0.856038 -0.28046 1.92014e-19)
(1.02303 -0.267455 0)
(1.18295 -0.253749 0)
(1.33531 -0.239573 -2.10829e-19)
(1.47976 -0.225124 -4.26345e-19)
(1.61612 -0.210597 0)
(1.7443 -0.196175 0)
(1.86435 -0.182025 0)
(1.97639 -0.168293 -2.32854e-19)
(2.08066 -0.155103 2.3666e-19)
(2.17742 -0.142548 0)
(2.26703 -0.130693 4.84758e-19)
(2.34984 -0.11958 2.44544e-19)
(2.42625 -0.109229 -4.97773e-19)
(2.49669 -0.0996393 0)
(2.56155 -0.0907966 0)
(2.62125 -0.0826741 -5.14641e-19)
(2.67617 -0.0752374 -2.60542e-19)
(2.7267 -0.068448 0)
(2.77319 -0.06226 0)
(2.81598 -0.0566237 0)
(2.85537 -0.0514894 0)
(2.89165 -0.0468036 -5.40797e-19)
(2.92506 -0.042509 0)
(2.9558 -0.0385465 0)
(2.98406 -0.0348477 0)
(3.00996 -0.0313274 0)
(3.03354 -0.0278794 0)
(3.05478 -0.0243603 0)
(3.07355 -0.0205554 -5.64765e-19)
(3.08951 -0.0161219 0)
(3.10205 -0.0104714 0)
(3.1102 -0.0024575 -1.15576e-18)
(3.11187 0.0104295 5.8233e-19)
(3.10821 0.0335474 -5.89928e-19)
(3.08528 0.0785999 5.94274e-19)
(-0.0247069 -0.0211294 0)
(-0.0478862 0.0430249 3.33317e-19)
(-0.0747899 0.0902705 0)
(-0.10347 0.129015 6.86991e-20)
(-0.131994 0.161978 0)
(-0.1601 0.189893 0)
(-0.188213 0.21301 -4.67266e-20)
(-0.21675 0.231567 0)
(-0.245997 0.245968 0)
(-0.276095 0.256756 0)
(-0.307054 0.2645 0)
(-0.3388 0.269726 0)
(-0.371215 0.272883 1.35651e-19)
(-0.404168 0.274341 6.49106e-20)
(-0.437528 0.274396 -6.22267e-20)
(-0.47117 0.273292 0)
(-0.504982 0.271227 0)
(-0.538864 0.268368 0)
(-0.572726 0.264854 0)
(-0.60649 0.260805 0)
(-0.640089 0.256324 5.00054e-20)
(-0.673463 0.251503 4.84838e-20)
(-0.706562 0.246421 -4.70767e-20)
(-0.739343 0.241149 4.57738e-20)
(-0.771771 0.235747 0)
(-0.803817 0.230269 0)
(-0.835455 0.224761 4.24649e-20)
(-0.866668 0.219264 0)
(-0.89744 0.21381 0)
(-0.927763 0.20843 3.97485e-20)
(-0.957631 0.203147 3.8885e-20)
(-0.98704 0.19798 3.81427e-20)
(-1.01599 0.192945 0)
(-1.04449 0.188055 0)
(-1.07254 0.183319 -3.61739e-20)
(-1.10015 0.178743 0)
(-1.12733 0.174332 0)
(-1.15409 0.170086 3.46027e-20)
(-1.18043 0.166006 -3.3948e-20)
(-1.20638 0.162091 3.34795e-20)
(-1.23195 0.158336 0)
(-1.25715 0.154738 0)
(-1.28199 0.151292 6.45718e-20)
(-1.30648 0.14799 0)
(-1.33065 0.144828 6.30554e-20)
(-1.35449 0.141798 9.35951e-20)
(-1.37803 0.138894 -9.25679e-20)
(-1.40128 0.136107 6.09997e-20)
(-1.42424 0.133433 0)
(-1.44693 0.130863 0)
(-1.46936 0.128392 5.91527e-20)
(-1.49154 0.126015 2.93643e-20)
(-1.51348 0.123727 0)
(-1.53518 0.121523 0)
(-1.55666 0.1194 2.85413e-20)
(-1.57792 0.117355 5.64096e-20)
(-1.59897 0.115387 0)
(-1.61982 0.113494 -5.55475e-20)
(-1.64048 0.111676 5.49068e-20)
(-1.66096 0.109935 -5.44238e-20)
(-1.68126 0.108273 0)
(-1.70141 0.106693 0)
(-1.7214 0.105199 0)
(-1.74126 0.103795 0)
(-1.761 0.102487 0)
(-1.78063 0.101281 -5.18197e-20)
(-1.80017 0.100182 0)
(-1.81964 0.0991978 0)
(-1.83907 0.0983342 0)
(-1.85848 0.0975983 -1.00041e-19)
(-1.87789 0.0969966 -4.96834e-20)
(-1.89734 0.0965353 -4.92725e-20)
(-1.91685 0.0962193 9.75684e-20)
(-1.93645 0.0960525 -4.82989e-20)
(-1.95619 0.0960372 4.80751e-20)
(-1.9761 0.0961741 0)