# vtk DataFile Version 2.0
track0
ASCII
DATASET POLYDATA
POINTS 11895 float
-0.0205 0.001 1e-05
-0.0202034 0.0010001 1e-05
-0.0199069 0.00100035 1e-05
-0.0196103 0.00100072 1e-05
-0.0193137 0.0010012 1e-05
-0.0190172 0.00100179 1e-05
-0.0187132 0.00100302 1e-05
-0.0184093 0.00100345 1e-05
-0.0181054 0.00100385 1e-05
-0.0178015 0.00100422 1e-05
-0.0174976 0.00100457 1e-05
-0.0172058 0.00100548 1e-05
-0.016914 0.00100571 1e-05
-0.0166222 0.00100596 1e-05
-0.0163305 0.00100621 1e-05
-0.0160387 0.00100649 1e-05
-0.0157586 0.00100728 1e-05
-0.0154784 0.00100761 1e-05
-0.0151983 0.00100798 1e-05
-0.0149182 0.0010084 1e-05
-0.0146381 0.00100886 1e-05
-0.0143692 0.00100974 1e-05
-0.0141002 0.00101029 1e-05
-0.0138313 0.00101088 1e-05
-0.0135624 0.00101152 1e-05
-0.0132934 0.0010122 1e-05
-0.0130353 0.00101317 1e-05
-0.0127771 0.00101392 1e-05
-0.0125189 0.0010147 1e-05
-0.0122607 0.00101551 1e-05
-0.0120025 0.00101636 1e-05
-0.0117547 0.00101738 1e-05
-0.0115068 0.00101827 1e-05
-0.0112589 0.00101918 1e-05
-0.0110111 0.00102011 1e-05
-0.0107632 0.00102107 1e-05
-0.0105252 0.00102213 1e-05
-0.0102873 0.00102311 1e-05
-0.0100493 0.0010241 1e-05
-0.00981133 0.00102512 1e-05
-0.00957337 0.00102615 1e-05
-0.00934491 0.00102722 1e-05
-0.00911645 0.00102825 1e-05
-0.00888799 0.00102929 1e-05
-0.00865954 0.00103034 1e-05
-0.00843108 0.00103141 1e-05
-0.00821175 0.00103248 1e-05
-0.00799242 0.00103353 1e-05
-0.00777309 0.00103458 1e-05
-0.00755376 0.00103565 1e-05
-0.00733443 0.00103673 1e-05
-0.00719339 0.00103743 1e-05
-0.00705235 0.00103814 1e-05
-0.00691132 0.00103884 1e-05
-0.00677028 0.00103955 1e-05
-0.00663033 0.00104025 1e-05
-0.00656059 0.00104061 1e-05
-0.00649084 0.00104096 1e-05
-0.00642109 0.00104131 1e-05
-0.00635135 0.00104167 1e-05
-0.0062816 0.00104202 1e-05
-0.00607944 0.00104305 1e-05
-0.00587729 0.00104409 1e-05
-0.00567514 0.00104512 1e-05
-0.00547298 0.00104616 1e-05
-0.00527083 0.00104721 1e-05
-0.00507675 0.00104821 1e-05
-0.00488267 0.00104922 1e-05
-0.0046886 0.00105023 1e-05
-0.00449452 0.00105124 1e-05
-0.00430044 0.00105225 1e-05
-0.00411412 0.00105322 1e-05
-0.0039278 0.00105419 1e-05
-0.00374147 0.00105517 1e-05
-0.00355515 0.00105614 1e-05
-0.00336883 0.00105712 1e-05
-0.00318995 0.00105805 1e-05
-0.00301107 0.00105898 1e-05
-0.00283219 0.00105992 1e-05
-0.00265331 0.00106085 1e-05
-0.00247443 0.00106179 1e-05
-0.0023027 0.00106268 1e-05
-0.00213097 0.00106358 1e-05
-0.00195924 0.00106447 1e-05
-0.0017875 0.00106537 1e-05
-0.00161577 0.00106627 1e-05
-0.0014509 0.00106712 1e-05
-0.00128603 0.00106797 1e-05
-0.00112116 0.00106882 1e-05
-0.000956289 0.00106967 1e-05
-0.000791418 0.00107051 1e-05
-0.000633135 0.0010713 1e-05
-0.000474851 0.00107209 1e-05
-0.000316567 0.00107286 1e-05
-0.000158283 0.00107361 1e-05
0 0.00107435 1e-05
0.000105677 0.00107483 1e-05
0.000211355 0.0010753 1e-05
0.000317032 0.00107576 1e-05
0.00042271 0.00107621 1e-05
0.000528387 0.00107665 1e-05
0.000634886 0.00107706 1e-05
0.000741385 0.00107748 1e-05
0.000847885 0.00107789 1e-05
0.000954384 0.00107828 1e-05
0.00106088 0.00107866 1e-05
0.00116821 0.00107903 1e-05
0.00127554 0.0010794 1e-05
0.00138286 0.00107975 1e-05
0.00149019 0.00108009 1e-05
0.00159752 0.00108043 1e-05
0.00170568 0.00108074 1e-05
0.00181384 0.00108106 1e-05
0.001922 0.00108136 1e-05
0.00203016 0.00108166 1e-05
0.00213833 0.00108194 1e-05
0.00224733 0.00108221 1e-05
0.00235633 0.00108248 1e-05
0.00246533 0.00108275 1e-05
0.00257434 0.001083 1e-05
0.00268334 0.00108325 1e-05
0.00279319 0.00108348 1e-05
0.00290304 0.00108371 1e-05
0.00301289 0.00108394 1e-05
0.00312274 0.00108416 1e-05
0.00323259 0.00108438 1e-05
0.00334329 0.00108458 1e-05
0.003454 0.00108479 1e-05
0.0035647 0.00108499 1e-05
0.0036754 0.00108518 1e-05
0.00378611 0.00108537 1e-05
0.00389767 0.00108554 1e-05
0.00400924 0.00108572 1e-05
0.0041208 0.00108589 1e-05
0.00423237 0.00108606 1e-05
0.00434393 0.00108623 1e-05
0.00445636 0.00108638 1e-05
0.00456879 0.00108653 1e-05
0.00468123 0.00108668 1e-05
0.00479366 0.00108683 1e-05
0.00490609 0.00108697 1e-05
0.0050194 0.0010871 1e-05
0.0051327 0.00108723 1e-05
0.00524601 0.00108735 1e-05
0.00535932 0.00108747 1e-05
0.00547262 0.00108759 1e-05
0.00556984 0.00108768 1e-05
0.00566706 0.00108778 1e-05
0.00576427 0.00108786 1e-05
0.00586149 0.00108795 1e-05
0.00595445 0.00108803 1e-05
0.00597227 0.00108804 1e-05
0.00599009 0.00108805 1e-05
0.00600791 0.00108807 1e-05
0.00602573 0.00108808 1e-05
0.00604356 0.0010881 1e-05
0.00615863 0.00108819 1e-05
0.00627371 0.00108827 1e-05
0.00638878 0.00108835 1e-05
0.00650386 0.00108842 1e-05
0.00661893 0.00108849 1e-05
0.0067349 0.00108855 1e-05
0.00685087 0.00108861 1e-05
0.00696684 0.00108867 1e-05
0.00708281 0.00108871 1e-05
0.00719878 0.00108876 1e-05
0.00731565 0.00108879 1e-05
0.00743252 0.00108883 1e-05
0.00754939 0.00108886 1e-05
0.00766626 0.00108888 1e-05
0.00778313 0.0010889 1e-05
0.00790091 0.0010889 1e-05
0.00801869 0.00108891 1e-05
0.00813647 0.00108891 1e-05
0.00825425 0.00108891 1e-05
0.00837203 0.0010889 1e-05
0.00849073 0.00108888 1e-05
0.00860942 0.00108885 1e-05
0.00872812 0.00108883 1e-05
0.00884682 0.00108879 1e-05
0.00896551 0.00108876 1e-05
0.00908513 0.0010887 1e-05
0.00920475 0.00108865 1e-05
0.00932437 0.00108859 1e-05
0.00944398 0.00108853 1e-05
0.0095636 0.00108846 1e-05
0.00968415 0.00108837 1e-05
0.0098047 0.00108828 1e-05
0.00992525 0.00108819 1e-05
0.0100458 0.0010881 1e-05
0.0101663 0.001088 1e-05
0.0102878 0.00108787 1e-05
0.0104093 0.00108775 1e-05
0.0105308 0.00108763 1e-05
0.0106523 0.0010875 1e-05
0.0107738 0.00108736 1e-05
0.0108962 0.0010872 1e-05
0.0110186 0.00108705 1e-05
0.0111411 0.00108689 1e-05
0.0112635 0.00108672 1e-05
0.0113859 0.00108655 1e-05
0.0115093 0.00108635 1e-05
0.0116327 0.00108616 1e-05
0.0117561 0.00108596 1e-05
0.0118795 0.00108575 1e-05
0.0120028 0.00108554 1e-05
0.0121272 0.0010853 1e-05
0.0122515 0.00108507 1e-05
0.0123759 0.00108483 1e-05
0.0125002 0.00108459 1e-05
0.0126245 0.00108434 1e-05
0.0127498 0.00108405 1e-05
0.0128752 0.00108378 1e-05
0.0130005 0.00108351 1e-05
0.0131258 0.00108322 1e-05
0.0132511 0.00108293 1e-05
0.0133774 0.0010826 1e-05
0.0135036 0.00108229 1e-05
0.0136299 0.00108196 1e-05
0.0137562 0.00108163 1e-05
0.0138825 0.0010813 1e-05
0.0140098 0.00108093 1e-05
0.014137 0.00108057 1e-05
0.0142643 0.0010802 1e-05
0.0143915 0.00107983 1e-05
0.0145188 0.00107944 1e-05
0.0146471 0.00107903 1e-05
0.0147753 0.00107862 1e-05
0.0149036 0.00107821 1e-05
0.0150318 0.00107778 1e-05
0.0151601 0.00107735 1e-05
0.0152893 0.00107689 1e-05
0.0154186 0.00107644 1e-05
0.0155478 0.00107597 1e-05
0.0156771 0.0010755 1e-05
0.0158063 0.00107502 1e-05
0.0159366 0.00107451 1e-05
0.0160668 0.00107401 1e-05
0.0161971 0.0010735 1e-05
0.0163274 0.00107297 1e-05
0.0164576 0.00107244 1e-05
0.0165889 0.00107189 1e-05
0.0167201 0.00107133 1e-05
0.0168514 0.00107076 1e-05
0.0169827 0.00107019 1e-05
0.0171139 0.00106961 1e-05
0.0172462 0.001069 1e-05
0.0173785 0.00106839 1e-05
0.0175108 0.00106777 1e-05
0.0176431 0.00106715 1e-05
0.0177754 0.00106651 1e-05
0.0179087 0.00106585 1e-05
0.018042 0.00106519 1e-05
0.0181753 0.00106452 1e-05
0.0183087 0.00106384 1e-05
0.018442 0.00106315 1e-05
0.0185763 0.00106244 1e-05
0.0187107 0.00106173 1e-05
0.018845 0.001061 1e-05
0.0189794 0.00106026 1e-05
0.0191137 0.00105952 1e-05
0.0192491 0.00105876 1e-05
0.0193845 0.00105799 1e-05
0.0195199 0.00105721 1e-05
0.0196553 0.00105641 1e-05
0.0197907 0.00105561 1e-05
0.0199272 0.00105481 1e-05
0.0200636 0.00105398 1e-05
0.0202001 0.00105314 1e-05
0.0203365 0.00105229 1e-05
0.020473 0.00105144 1e-05
0.0206105 0.00105058 1e-05
0.020748 0.0010497 1e-05
0.0208855 0.0010488 1e-05
0.021023 0.0010479 1e-05
0.0211606 0.00104699 1e-05
0.0212991 0.00104608 1e-05
0.0214377 0.00104515 1e-05
0.0215763 0.00104419 1e-05
0.0217149 0.00104322 1e-05
0.0218535 0.00104226 1e-05
0.0219931 0.0010413 1e-05
0.0221328 0.00104031 1e-05
0.0222724 0.0010393 1e-05
0.0224121 0.00103827 1e-05
0.0225517 0.00103725 1e-05
0.0226925 0.00103624 1e-05
0.0228332 0.0010352 1e-05
0.022974 0.00103413 1e-05
0.0231147 0.00103304 1e-05
0.0232555 0.00103197 1e-05
0.0233973 0.00103091 1e-05
0.0235391 0.00102981 1e-05
0.023681 0.00102868 1e-05
0.0238228 0.00102754 1e-05
0.0239647 0.00102642 1e-05
0.0241076 0.0010253 1e-05
0.0242505 0.00102415 1e-05
0.0243935 0.00102296 1e-05
0.0245364 0.00102177 1e-05
0.0246794 0.00102059 1e-05
0.0248234 0.00101941 1e-05
0.0249675 0.00101821 1e-05
0.0251115 0.00101697 1e-05
0.0252556 0.00101572 1e-05
0.0253996 0.00101448 1e-05
0.0255448 0.00101325 1e-05
0.02569 0.00101199 1e-05
0.0258351 0.0010107 1e-05
0.0259803 0.00100939 1e-05
0.0261255 0.0010081 1e-05
0.0262718 0.00100682 1e-05
0.0264181 0.0010055 1e-05
0.0265644 0.00100415 1e-05
0.0267107 0.00100279 1e-05
0.026857 0.00100145 1e-05
0.0270044 0.00100011 1e-05
0.0271519 0.000998735 1e-05
0.0272993 0.000997327 1e-05
0.0274468 0.000995911 1e-05
0.0275942 0.000994512 1e-05
0.0277428 0.000993118 1e-05
0.0278914 0.00099169 1e-05
0.0280399 0.000990226 1e-05
0.0281885 0.000988756 1e-05
0.0283371 0.0009873 1e-05
0.0284869 0.00098585 1e-05
0.0286366 0.000984365 1e-05
0.0287863 0.000982848 1e-05
0.0289361 0.000981325 1e-05
0.0290858 0.000979813 1e-05
0.0292367 0.000978306 1e-05
0.0293876 0.000976763 1e-05
0.0295385 0.000975193 1e-05
0.0296894 0.000973616 1e-05
0.0298403 0.000972047 1e-05
0.0299924 0.000970481 1e-05
0.0301445 0.000968881 1e-05
0.0302966 0.000967256 1e-05
0.0304486 0.000965625 1e-05
0.0306007 0.000963997 1e-05
0.030754 0.000962372 1e-05
0.0309072 0.000960713 1e-05
0.0310605 0.000959033 1e-05
0.0312138 0.000957346 1e-05
0.031367 0.000955659 1e-05
0.0315215 0.000953974 1e-05
0.0316759 0.000952253 1e-05
0.0318304 0.000950517 1e-05
0.0319848 0.000948773 1e-05
0.0321393 0.000947025 1e-05
0.0322949 0.000945278 1e-05
0.0324506 0.000943496 1e-05
0.0326062 0.000941702 1e-05
0.0327619 0.000939899 1e-05
0.0329175 0.000938089 1e-05
0.0330744 0.000936278 1e-05
0.0332313 0.000934433 1e-05
0.0333881 0.000932579 1e-05
[...]
POINT_DATA 11895
 FIELD attributes 2
p 1 11895 float
-5.07249 -5.06484 -5.05682 -5.04876 -5.04066 -5.04117 -5.01409 -5.03018 -5.04625 -5.06231 -5.12346 -5.12958 -5.16839 -5.20721 -5.24602 -5.3076 -5.30682 -5.33382 -5.36083 -5.38786 -5.43436 -5.43811 -5.46143 -5.48476 -5.50811 -5.5462 -5.55534 -5.57702 -5.5987 -5.6204 -5.65154 -5.66277 -5.68192 -5.70107 -5.72024 -5.74516 -5.75732 -5.77432 -5.79134 -5.80835 -5.82868 -5.84153 -5.85713 -5.87272 -5.88832 -5.90555 -5.91885 -5.93348 -5.9481 -5.96273 -5.97787 -5.98677 -5.99608 -6.0054 -6.01471 -6.02395 -6.02856 -6.03316 -6.03776 -6.04237 -6.04682 -6.0603 -6.07366 -6.08703 -6.10039 -6.11325 -6.12663 -6.13962 -6.15261 -6.16561 -6.17789 -6.19121 -6.20399 -6.21678 -6.22956 -6.24152 -6.25494 -6.26774 -6.28054 -6.29334 -6.30529 -6.31929 -6.3327 -6.34612 -6.35954 -6.37217 -6.38822 -6.40411 -6.42 -6.43589 -6.45112 -6.46901 -6.4863 -6.50359 -6.52088 -6.53657 -6.55046 -6.56203 -6.5736 -6.58517 -6.59447 -6.60433 -6.61104 -6.61775 -6.62446 -6.62877 -6.63771 -6.64341 -6.64912 -6.65482 -6.65776 -6.66667 -6.67204 -6.67741 -6.68278 -6.68493 -6.69245 -6.69652 -6.70059 -6.70466 -6.70566 -6.71154 -6.71455 -6.71756 -6.72057 -6.72107 -6.72565 -6.72807 -6.73049 -6.7329 -6.7335 -6.73696 -6.73893 -6.7409 -6.74287 -6.74368 -6.74617 -6.74776 -6.74934 -6.75092 -6.75188 -6.75364 -6.75492 -6.75621 -6.75749 -6.75855 -6.75964 -6.76056 -6.76148 -6.7624 -6.76328 -6.76345 -6.76362 -6.76379 -6.76396 -6.76414 -6.76509 -6.76605 -6.76701 -6.76796 -6.76895 -6.76985 -6.77075 -6.77164 -6.77254 -6.77345 -6.77436 -6.77526 -6.77616 -6.77705 -6.77798 -6.7789 -6.77984 -6.78078 -6.78172 -6.78277 -6.78363 -6.78463 -6.78563 -6.78663 -6.7879 -6.78862 -6.78969 -6.79076 -6.79183 -6.79344 -6.79393 -6.79508 -6.79623 -6.79738 -6.79944 -6.79961 -6.80085 -6.80208 -6.80332 -6.80593 -6.80572 -6.80705 -6.80837 -6.8097 -6.81292 -6.81229 -6.81371 -6.81514 -6.81656 -6.82044 -6.81936 -6.82088 -6.8224 -6.82392 -6.82847 -6.82697 -6.82858 -6.8302 -6.83182 -6.83701 -6.83513 -6.83684 -6.83855 -6.84026 -6.84607 -6.84385 -6.84566 -6.84747 -6.84928 -6.85563 -6.85317 -6.85508 -6.85698 -6.85889 -6.86569 -6.86319 -6.86508 -6.86709 -6.86946 -6.87624 -6.87406 -6.87568 -6.87778 -6.88063 -6.88727 -6.88548 -6.88686 -6.88906 -6.89233 -6.89876 -6.89741 -6.89861 -6.90091 -6.90454 -6.91071 -6.90982 -6.91091 -6.9133 -6.91722 -6.92309 -6.92269 -6.92374 -6.92623 -6.93036 -6.93593 -6.93601 -6.9371 -6.93969 -6.94396 -6.94921 -6.94978 -6.95098 -6.95367 -6.95801 -6.96295 -6.96398 -6.96535 -6.96813 -6.97247 -6.97712 -6.97858 -6.98016 -6.98303 -6.98732 -6.99169 -6.99355 -6.99542 -6.9984 -7.00253 -7.00665 -7.00888 -7.0111 -7.01417 -7.01808 -7.022 -7.02454 -7.02709 -7.03023 -7.03397 -7.03771 -7.04054 -7.04336 -7.04658 -7.05018 -7.05379 -7.05685 -7.05991 -7.06319 -7.0667 -7.0702 -7.07346 -7.07673 -7.08007 -7.08351 -7.08695 -7.09037 -7.0938 -7.0972 -7.1006 -7.104 -7.10756 -7.11112 -7.11458 -7.11797 -7.12135 -7.12501 -7.12867 -7.13218 -7.13558 -7.13897 -7.14271 -7.14642 -7.14997 -7.15342 -7.15685 -7.16063 -7.16437 -7.16797 -7.17148 -7.17494 -7.17876 -7.1825 -7.18615 -7.18972 -7.19322 -7.19706 -7.20081 -7.20449 -7.20812 -7.21167 -7.21551 -7.21926 -7.22297 -7.22666 -7.23027 -7.2341 -7.23785 -7.24159 -7.24532 -7.24898 -7.2528 -7.25656 -7.26032 -7.26408 -7.26778 -7.27158 -7.27535 -7.27912 -7.28289 -7.28663 -7.29041 -7.29418 -7.29794 -7.30171 -7.30548 -7.30923 -7.31299 -7.31675 -7.32051 -7.32427 -7.32799 -7.33173 -7.33548 -7.33922 -7.34296 -7.34666 -7.35037 -7.35408 -7.35779 -7.3615 -7.364 -7.36651 -7.36901 -7.37152 -7.37395 -7.37513 -7.37631 -7.37749 -7.37867 -7.37986 -7.38348 -7.3871 -7.39073 -7.39435 -7.39799 -7.40155 -7.4051 -7.40866 -7.41221 -7.41577 -7.41926 -7.42273 -7.4262 -7.42967 -7.43314 -7.43655 -7.43992 -7.44329 -7.44667 -7.45002 -7.45335 -7.45661 -7.45987 -7.46313 -7.46636 -7.46959 -7.47273 -7.47587 -7.47899 -7.48208 -7.48519 -7.4882 -7.49119 -7.49416 -7.49708 -7.50005 -7.50294 -7.50576 -7.50855 -7.51129 -7.51409 -7.51684 -7.51948 -7.52205 -7.52459 -7.52721 -7.5298 -7.53224 -7.53457 -7.5369 -7.53931 -7.54172 -7.54394 -7.54602 -7.5481 -7.55029 -7.55247 -7.55447 -7.55629 -7.55812 -7.56006 -7.562 -7.56375 -7.5653 -7.56685 -7.56853 -7.57021 -7.5717 -7.57295 -7.5742 -7.57558 -7.57697 -7.57816 -7.57911 -7.58003 -7.58111 -7.58213 -7.58299 -7.58366 -7.58423 -7.58496 -7.58558 -7.58609 -7.58647 -7.58666 -7.58703 -7.58721 -7.58733 -7.58741 -7.5872 -7.58717 -7.58688 -7.58658 -7.58629 -7.5857 -7.58518 -7.58444 -7.58369 -7.58296 -7.58201 -7.58094 -7.57972 -7.5785 -7.57728 -7.57596 -7.57461 -7.57319 -7.57176 -7.57034 -7.56899 -7.56868 -7.56836 -7.56804 -7.56772 -7.5674 -7.56517 -7.56293 -7.5607 -7.55847 -7.55621 -7.55346 -7.55063 -7.5478 -7.54498 -7.54209 -7.53878 -7.53531 -7.53185 -7.52838 -7.5248 -7.52088 -7.51676 -7.5126 -7.50841 -7.5041 -7.49948 -7.49472 -7.48983 -7.48483 -7.47975 -7.47436 -7.46894 -7.46327 -7.45738 -7.45148 -7.44528 -7.43907 -7.43257 -7.42579 -7.41902 -7.41194 -7.40486 -7.39749 -7.38979 -7.38209 -7.37408 -7.36607 -7.35774 -7.34909 -7.3404 -7.33141 -7.32228 -7.31293 -7.30341 -7.29368 -7.28366 -7.27331 -7.26289 -7.25248 -7.24167 -7.23047 -7.21892 -7.20737 -7.19583 -7.18409 -7.17177 -7.15926 -7.14677 -7.13427 -7.12272 -7.12231 -7.12191 -7.1215 -7.1211 -7.12069 -7.10677 -7.09286 -7.07895 -7.06505 -7.05102 -7.03601 -7.02084 -7.00567 -6.99052 -6.97506 -6.95893 -6.94246 -6.926 -6.90945 -6.89259 -6.87515 -6.85753 -6.83974 -6.82166 -6.80343 -6.78463 -6.76584 -6.74664 -6.72702 -6.7074 -6.68721 -6.66703 -6.64642 -6.62537 -6.60433 -6.58272 -6.5611 -6.53899 -6.51656 -6.49407 -6.47102 -6.44769 -6.42411 -6.40045 -6.37649 -6.35197 -6.32689 -6.30182 -6.27676 -6.25148 -6.22833 -6.20493 -6.18152 -6.15813 -6.13626 -6.1328 -6.12935 -6.12589 -6.12243 -6.11892 -6.09098 -6.06302 -6.03506 -6.00711 -5.97868 -5.94959 -5.9201 -5.89063 -5.86105 -5.83075 -5.80025 -5.76948 -5.73847 -5.7069 -5.67506 -5.64302 -5.611 -5.57835 -5.54497 -5.51158 -5.47801 -5.44445 -5.41015 -5.37523 -5.34032 -5.30521 -5.26973 -5.23378 -5.1977 -5.16126 -5.12458 -5.08708 -5.0496 -5.01213 -4.97444 -4.95503 -4.93534 -4.91565 -4.89597 -4.87698 -4.8576 -4.83823 -4.81886 -4.79949 -4.77983 -4.73968 -4.69933 -4.65899 -4.61867 -4.57745 -4.5361 -4.49442 -4.45262 -4.41026 -4.36754 -4.32472 -4.28191 -4.2385 -4.19436 -4.15021 -4.10595 -4.06171 -4.01661 -3.97116 -3.92561 -3.87995 -3.83371 -3.78722 -3.74073 -3.69391 -3.65578 -3.61717 -3.57857 -3.53998 -3.50343 -3.49381 -3.4842 -3.47459 -3.46498 -3.45523 -3.40631 -3.35732 -3.30834 -3.25937 -3.20962 -3.15973 -3.10959 -3.05937 -3.00864 -2.95757 -2.90646 -2.85536 -2.80375 -2.75157 -2.69936 -2.64708 -2.59467 -2.54167 -2.48855 -2.43526 -2.38188 -2.32782 -2.27377 -2.21973 -2.16559 -2.15357 -2.14142 -2.12928 -2.11714 -2.10516 -2.06229 -2.01944 -1.97659 -1.93375 -1.89044 -1.83476 -1.77889 -1.72304 -1.66689 -1.61037 -1.55381 -1.49726 -1.44041 -1.38314 -1.32583 -1.26846 -1.21101 -1.15315 -1.09525 -1.03723 -0.979106 -0.920571 -0.862048 -0.803539 -0.744987 -0.743518 -0.74204 -0.740561 -0.739083 -0.737607 -0.679984 -0.622374 -0.564776 -0.507191 -0.449184 -0.38962 -0.330046 -0.270471 -0.21062 -0.150647 -0.0906253 -0.0306184 0.0295833 0.0898481 0.150162 0.210547 0.271063 0.331638 0.392201 0.45278 0.475466 0.498202 0.520937 0.543669 0.565955 0.604138 0.642315 0.680488 0.718656 0.756957 0.818038 0.879011 0.939972 1.00099 1.0621 1.12326 1.1844 1.2455 1.30651 1.36758 1.42872 1.48982 1.55089 1.61195 1.67295 1.696 1.719 1.74201 1.76501 1.7876 1.82569 1.86376 1.90183 1.9399 1.97794 2.03898 2.09981 2.16061 2.2213 2.282 2.34274 2.40346 2.46399 2.52423 2.58452 2.64487 2.70499 2.76503 2.82507 2.88509 2.89236 2.8996 2.90683 2.91406 2.92126 2.97379 3.02632 3.07884 3.13133 3.18355 3.24312 3.30255 3.36172 3.42047 3.47927 3.5382 3.59705 3.65548 3.71376 3.77185 3.81114 3.85012 3.88905 3.92798 3.96607 3.98511 4.00415 4.02319 4.04222 4.06116 4.11861 4.17586 4.23311 4.29021 4.34713 4.40388 4.46061 4.51696 4.57293 4.62894 4.68479 4.7404 4.79578 4.85116 4.90633 4.9257 4.94492 4.96412 4.98332 5.00239 5.03785 5.07332 5.10879 5.14422 5.17936 5.23352 5.28738 5.34113 5.39443 5.44766 5.50078 5.55389 5.60645 5.6587 5.71084 5.75241 5.79356 5.83464 5.87571 5.91646 5.92697 5.93747 5.94797 5.95846 5.96884 6.01974 6.07047 6.12119 6.17166 6.22175 6.27177 6.32178 6.37125 6.42017 6.4691 6.51796 6.56634 6.61452 6.6627 6.71079 6.71546 6.72008 6.72469 6.72929 6.7339 6.77669 6.81948 6.86228 6.90497 6.94715 6.99383 7.04051 7.08661 7.13219 7.17776 7.22325 7.26845 7.31326 7.35807 7.40254 7.41718 7.43164 7.44605 7.46047 7.47496 7.50444 7.53391 7.56339 7.59279 7.62181 7.66508 7.70814 7.751 7.79321 7.83538 7.87746 7.91944 7.96085 8.00216 8.04313 8.06632 8.08921 8.11202 8.13484 8.15804 8.17556 8.19308 8.21059 8.22806 8.24529 8.28514 8.32462 8.3641 8.40316 8.44196 8.48067 8.51937 8.55755 8.59528 8.63293 8.66595 8.69851 8.73099 8.76348 8.79719 8.80143 8.80567 8.80991 8.81414 8.8183 8.85457 8.89076 8.92694 8.96297 8.99853 9.03395 9.06938 9.10433 9.13881 9.17325 9.20757 9.24161 9.27536 9.30912 9.34258 9.35465 9.36653 9.3784 9.39027 9.40237 9.42335 9.44434 9.46532 9.48627 9.5069 9.53919 9.57123 9.6032 9.63477 9.66618 9.69744 9.7287 9.75955 9.79 9.8204 9.85065 9.88048 9.91025 9.94002 9.96969 9.97282 9.97589 9.97896 9.98204 9.98513 10.0111 10.0371 10.0631 10.089 10.1146 10.143 10.1713 10.1994 10.2272 10.2548 10.2823 10.3098 10.337 10.3638 10.3906 10.4172 10.4435 10.4697 10.4959 10.522 10.5286 10.5352 10.5417 10.5482 10.5549 10.5738 10.5928 10.6117 10.6306 10.6493 10.6743 10.6991 10.7238 10.7484 10.773 10.7974 10.8218 10.8453 10.868 10.8907 10.9131 10.936 10.9601 10.9846 11.0095 11.0339 11.0509 11.0678 11.0848 11.0997 11.1047 11.1136 11.1225 11.1313 11.1409 11.1554 11.17 11.1845 11.1991 11.2201 11.2536 11.2797 11.3057 11.3211 11.3284 11.3352 11.3419 11.3533 11.3689 11.3846 11.3989 11.4114 11.4235 11.4356 11.4494 11.4499 11.4504 11.451 11.4515 11.452 11.4628 11.4736 11.4843 11.4948 11.5046 11.5136 11.5226 11.5303 11.537 11.5437 11.5495 11.5547 11.5591 11.5633 11.5666 11.5676 11.5679 11.5681 11.5683 11.5684 11.5692 11.5699 11.5707 11.5714 11.5713 11.5697 11.5667 11.5636 11.5595 11.5544 11.5479 11.5413 11.5328 11.5222 11.5115 11.4991 11.4852 11.47 11.4549 11.4381 11.4283 11.417 11.4057 11.3944 11.3816 11.3716 11.3616 11.3515 11.3414 11.3301 11.3029 11.274 11.2449 11.2148 11.1823 11.147 11.1115 11.0724 11.03 10.9876 10.9419 10.8962 10.8461 10.7931 10.7394 10.6821 10.6209 10.5583 10.4957 10.4301 10.3787 10.3244 10.27 10.2156 10.1483 10.1293 10.1103 10.0913 10.0723 10.0524 9.96343 9.87316 9.78279 9.69231 9.5963 9.49377 9.38657 9.27874 9.16812 9.05393 8.93386 8.81262 8.68341 8.54392 8.40428 8.25795 8.11155 7.96186 7.809 7.65602 7.49597 7.33449 7.14775 6.94321 6.73463 6.51698 6.31211 6.11956 5.93277 5.76084 5.58135 5.29299 4.99722 4.70194 4.33374 4.00594 3.82313 3.64205 3.46265 3.33293 3.21448 2.93602 2.65678 2.37676 2.1832 1.81076 1.44163 1.07577 0.713127 0