# vtk DataFile Version 2.0
track0
ASCII
DATASET POLYDATA
POINTS 11895 float
-0.0205 0.001 1e-05
-0.0202034 0.0010001 1e-05
-0.0199069 0.00100035 1e-05
-0.0196103 0.00100072 1e-05
-0.0193137 0.0010012 1e-05
-0.0190172 0.00100179 1e-05
-0.0187132 0.00100302 1e-05
-0.0184093 0.00100345 1e-05
-0.0181054 0.00100385 1e-05
-0.0178015 0.00100422 1e-05
-0.0174976 0.00100457 1e-05
-0.0172058 0.00100548 1e-05
-0.016914 0.00100571 1e-05
-0.0166222 0.00100596 1e-05
-0.0163305 0.00100621 1e-05
-0.0160387 0.00100649 1e-05
-0.0157586 0.00100728 1e-05
-0.0154784 0.00100761 1e-05
-0.0151983 0.00100798 1e-05
-0.0149182 0.0010084 1e-05
-0.0146381 0.00100886 1e-05
-0.0143692 0.00100974 1e-05
-0.0141002 0.00101029 1e-05
-0.0138313 0.00101088 1e-05
-0.0135624 0.00101152 1e-05
-0.0132934 0.0010122 1e-05
-0.0130353 0.00101317 1e-05
-0.0127771 0.00101392 1e-05
-0.0125189 0.0010147 1e-05
-0.0122607 0.00101551 1e-05
-0.0120025 0.00101636 1e-05
-0.0117547 0.00101738 1e-05
-0.0115068 0.00101827 1e-05
-0.0112589 0.00101918 1e-05
-0.0110111 0.00102011 1e-05
-0.0107632 0.00102107 1e-05
-0.0105252 0.00102213 1e-05
-0.0102873 0.00102311 1e-05
-0.0100493 0.0010241 1e-05
-0.00981133 0.00102512 1e-05
-0.00957337 0.00102615 1e-05
-0.00934491 0.00102722 1e-05
-0.00911645 0.00102825 1e-05
-0.00888799 0.00102929 1e-05
-0.00865954 0.00103034 1e-05
-0.00843108 0.00103141 1e-05
-0.00821175 0.00103248 1e-05
-0.00799242 0.00103353 1e-05
-0.00777309 0.00103458 1e-05
-0.00755376 0.00103565 1e-05
-0.00733443 0.00103673 1e-05
-0.00719339 0.00103743 1e-05
-0.00705235 0.00103814 1e-05
-0.00691132 0.00103884 1e-05
-0.00677028 0.00103955 1e-05
-0.00663033 0.00104025 1e-05
-0.00656059 0.00104061 1e-05
-0.00649084 0.00104096 1e-05
-0.00642109 0.00104131 1e-05
-0.00635135 0.00104167 1e-05
-0.0062816 0.00104202 1e-05
-0.00607944 0.00104305 1e-05
-0.00587729 0.00104409 1e-05
-0.00567514 0.00104512 1e-05
-0.00547298 0.00104616 1e-05
-0.00527083 0.00104721 1e-05
-0.00507675 0.00104821 1e-05
-0.00488267 0.00104922 1e-05
-0.0046886 0.00105023 1e-05
-0.00449452 0.00105124 1e-05
-0.00430044 0.00105225 1e-05
-0.00411412 0.00105322 1e-05
-0.0039278 0.00105419 1e-05
-0.00374147 0.00105517 1e-05
-0.00355515 0.00105614 1e-05
-0.00336883 0.00105712 1e-05
-0.00318995 0.00105805 1e-05
-0.00301107 0.00105898 1e-05
-0.00283219 0.00105992 1e-05
-0.00265331 0.00106085 1e-05
-0.00247443 0.00106179 1e-05
-0.0023027 0.00106268 1e-05
-0.00213097 0.00106358 1e-05
-0.00195924 0.00106447 1e-05
-0.0017875 0.00106537 1e-05
-0.00161577 0.00106627 1e-05
-0.0014509 0.00106712 1e-05
-0.00128603 0.00106797 1e-05
-0.00112116 0.00106882 1e-05
-0.000956289 0.00106967 1e-05
-0.000791418 0.00107051 1e-05
-0.000633135 0.0010713 1e-05
-0.000474851 0.00107209 1e-05
-0.000316567 0.00107286 1e-05
-0.000158283 0.00107361 1e-05
0 0.00107435 1e-05
0.000105677 0.00107483 1e-05
0.000211355 0.0010753 1e-05
0.000317032 0.00107576 1e-05
0.00042271 0.00107621 1e-05
0.000528387 0.00107665 1e-05
0.000634886 0.00107706 1e-05
0.000741385 0.00107748 1e-05
0.000847885 0.00107789 1e-05
0.000954384 0.00107828 1e-05
0.00106088 0.00107866 1e-05
0.00116821 0.00107903 1e-05
0.00127554 0.0010794 1e-05
0.00138286 0.00107975 1e-05
0.00149019 0.00108009 1e-05
0.00159752 0.00108043 1e-05
0.00170568 0.00108074 1e-05
0.00181384 0.00108106 1e-05
0.001922 0.00108136 1e-05
0.00203016 0.00108166 1e-05
0.00213833 0.00108194 1e-05
0.00224733 0.00108221 1e-05
0.00235633 0.00108248 1e-05
0.00246533 0.00108275 1e-05
0.00257434 0.001083 1e-05
0.00268334 0.00108325 1e-05
0.00279319 0.00108348 1e-05
0.00290304 0.00108371 1e-05
0.00301289 0.00108394 1e-05
0.00312274 0.00108416 1e-05
0.00323259 0.00108438 1e-05
0.00334329 0.00108458 1e-05
0.003454 0.00108479 1e-05
0.0035647 0.00108499 1e-05
0.0036754 0.00108518 1e-05
0.00378611 0.00108537 1e-05
0.00389767 0.00108554 1e-05
0.00400924 0.00108572 1e-05
0.0041208 0.00108589 1e-05
0.00423237 0.00108606 1e-05
0.00434393 0.00108623 1e-05
0.00445636 0.00108638 1e-05
0.00456879 0.00108653 1e-05
0.00468123 0.00108668 1e-05
0.00479366 0.00108683 1e-05
0.00490609 0.00108697 1e-05
0.0050194 0.0010871 1e-05
0.0051327 0.00108723 1e-05
0.00524601 0.00108735 1e-05
0.00535932 0.00108747 1e-05
0.00547262 0.00108759 1e-05
0.00556984 0.00108768 1e-05
0.00566706 0.00108778 1e-05
0.00576427 0.00108786 1e-05
0.00586149 0.00108795 1e-05
0.00595445 0.00108803 1e-05
0.00597227 0.00108804 1e-05
0.00599009 0.00108805 1e-05
0.00600791 0.00108807 1e-05
0.00602573 0.00108808 1e-05
0.00604356 0.0010881 1e-05
0.00615863 0.00108819 1e-05
0.00627371 0.00108827 1e-05
0.00638878 0.00108835 1e-05
0.00650386 0.00108842 1e-05
0.00661893 0.00108849 1e-05
0.0067349 0.00108855 1e-05
0.00685087 0.00108861 1e-05
0.00696684 0.00108867 1e-05
0.00708281 0.00108871 1e-05
0.00719878 0.00108876 1e-05
0.00731565 0.00108879 1e-05
0.00743252 0.00108883 1e-05
0.00754939 0.00108886 1e-05
0.00766626 0.00108888 1e-05
0.00778313 0.0010889 1e-05
0.00790091 0.0010889 1e-05
0.00801869 0.00108891 1e-05
0.00813647 0.00108891 1e-05
0.00825425 0.00108891 1e-05
0.00837203 0.0010889 1e-05
0.00849073 0.00108888 1e-05
0.00860942 0.00108885 1e-05
0.00872812 0.00108883 1e-05
0.00884682 0.00108879 1e-05
0.00896551 0.00108876 1e-05
0.00908513 0.0010887 1e-05
0.00920475 0.00108865 1e-05
0.00932437 0.00108859 1e-05
0.00944398 0.00108853 1e-05
0.0095636 0.00108846 1e-05
0.00968415 0.00108837 1e-05
0.0098047 0.00108828 1e-05
0.00992525 0.00108819 1e-05
0.0100458 0.0010881 1e-05
0.0101663 0.001088 1e-05
0.0102878 0.00108787 1e-05
0.0104093 0.00108775 1e-05
0.0105308 0.00108763 1e-05
0.0106523 0.0010875 1e-05
0.0107738 0.00108736 1e-05
0.0108962 0.0010872 1e-05
0.0110186 0.00108705 1e-05
0.0111411 0.00108689 1e-05
0.0112635 0.00108672 1e-05
0.0113859 0.00108655 1e-05
0.0115093 0.00108635 1e-05
0.0116327 0.00108616 1e-05
0.0117561 0.00108596 1e-05
0.0118795 0.00108575 1e-05
0.0120028 0.00108554 1e-05
0.0121272 0.0010853 1e-05
0.0122515 0.00108507 1e-05
0.0123759 0.00108483 1e-05
0.0125002 0.00108459 1e-05
0.0126245 0.00108434 1e-05
0.0127498 0.00108405 1e-05
0.0128752 0.00108378 1e-05
0.0130005 0.00108351 1e-05
0.0131258 0.00108322 1e-05
0.0132511 0.00108293 1e-05
0.0133774 0.0010826 1e-05
0.0135036 0.00108229 1e-05
0.0136299 0.00108196 1e-05
0.0137562 0.00108163 1e-05
0.0138825 0.0010813 1e-05
0.0140098 0.00108093 1e-05
0.014137 0.00108057 1e-05
0.0142643 0.0010802 1e-05
0.0143915 0.00107983 1e-05
0.0145188 0.00107944 1e-05
0.0146471 0.00107903 1e-05
0.0147753 0.00107862 1e-05
0.0149036 0.00107821 1e-05
0.0150318 0.00107778 1e-05
0.0151601 0.00107735 1e-05
0.0152893 0.00107689 1e-05
0.0154186 0.00107644 1e-05
0.0155478 0.00107597 1e-05
0.0156771 0.0010755 1e-05
0.0158063 0.00107502 1e-05
0.0159366 0.00107451 1e-05
0.0160668 0.00107401 1e-05
0.0161971 0.0010735 1e-05
0.0163274 0.00107297 1e-05
0.0164576 0.00107244 1e-05
0.0165889 0.00107189 1e-05
0.0167201 0.00107133 1e-05
0.0168514 0.00107076 1e-05
0.0169827 0.00107019 1e-05
0.0171139 0.00106961 1e-05
0.0172462 0.001069 1e-05
0.0173785 0.00106839 1e-05
0.0175108 0.00106777 1e-05
0.0176431 0.00106715 1e-05
0.0177754 0.00106651 1e-05
0.0179087 0.00106585 1e-05
0.018042 0.00106519 1e-05
0.0181753 0.00106452 1e-05
0.0183087 0.00106384 1e-05
0.018442 0.00106315 1e-05
0.0185763 0.00106244 1e-05
0.0187107 0.00106173 1e-05
0.018845 0.001061 1e-05
0.0189794 0.00106026 1e-05
0.0191137 0.00105952 1e-05
0.0192491 0.00105876 1e-05
0.0193845 0.00105799 1e-05
0.0195199 0.00105721 1e-05
0.0196553 0.00105641 1e-05
0.0197907 0.00105561 1e-05
0.0199272 0.00105481 1e-05
0.0200636 0.00105398 1e-05
0.0202001 0.00105314 1e-05
0.0203365 0.00105229 1e-05
0.020473 0.00105144 1e-05
0.0206105 0.00105058 1e-05
0.020748 0.0010497 1e-05
0.0208855 0.0010488 1e-05
0.021023 0.0010479 1e-05
0.0211606 0.00104699 1e-05
0.0212991 0.00104608 1e-05
0.0214377 0.00104515 1e-05
0.0215763 0.00104419 1e-05
0.0217149 0.00104322 1e-05
0.0218535 0.00104226 1e-05
0.0219931 0.0010413 1e-05
0.0221328 0.00104031 1e-05
0.0222724 0.0010393 1e-05
0.0224121 0.00103827 1e-05
0.0225517 0.00103725 1e-05
0.0226925 0.00103624 1e-05
0.0228332 0.0010352 1e-05
0.022974 0.00103413 1e-05
0.0231147 0.00103304 1e-05
0.0232555 0.00103197 1e-05
0.0233973 0.00103091 1e-05
0.0235391 0.00102981 1e-05
0.023681 0.00102868 1e-05
0.0238228 0.00102754 1e-05
0.0239647 0.00102642 1e-05
0.0241076 0.0010253 1e-05
0.0242505 0.00102415 1e-05
0.0243935 0.00102296 1e-05
0.0245364 0.00102177 1e-05
0.0246794 0.00102059 1e-05
0.0248234 0.00101941 1e-05
0.0249675 0.00101821 1e-05
0.0251115 0.00101697 1e-05
0.0252556 0.00101572 1e-05
0.0253996 0.00101448 1e-05
0.0255448 0.00101325 1e-05
0.02569 0.00101199 1e-05
0.0258351 0.0010107 1e-05
0.0259803 0.00100939 1e-05
0.0261255 0.0010081 1e-05
0.0262718 0.00100682 1e-05
0.0264181 0.0010055 1e-05
0.0265644 0.00100415 1e-05
0.0267107 0.00100279 1e-05
0.026857 0.00100145 1e-05
0.0270044 0.00100011 1e-05
0.0271519 0.000998735 1e-05
0.0272993 0.000997327 1e-05
0.0274468 0.000995911 1e-05
0.0275942 0.000994512 1e-05
0.0277428 0.000993118 1e-05
0.0278914 0.00099169 1e-05
0.0280399 0.000990226 1e-05
0.0281885 0.000988756 1e-05
0.0283371 0.0009873 1e-05
0.0284869 0.00098585 1e-05
0.0286366 0.000984365 1e-05
0.0287863 0.000982848 1e-05
0.0289361 0.000981325 1e-05
0.0290858 0.000979813 1e-05
0.0292367 0.000978306 1e-05
0.0293876 0.000976763 1e-05
0.0295385 0.000975193 1e-05
0.0296894 0.000973616 1e-05
0.0298403 0.000972047 1e-05
0.0299924 0.000970481 1e-05
0.0301445 0.000968881 1e-05
0.0302966 0.000967256 1e-05
0.0304486 0.000965625 1e-05
0.0306007 0.000963997 1e-05
0.030754 0.000962372 1e-05
0.0309072 0.000960713 1e-05
0.0310605 0.000959033 1e-05
0.0312138 0.000957346 1e-05
0.031367 0.000955659 1e-05
0.0315215 0.000953974 1e-05
0.0316759 0.000952253 1e-05
0.0318304 0.000950517 1e-05
0.0319848 0.000948773 1e-05
0.0321393 0.000947025 1e-05
0.0322949 0.000945278 1e-05
0.0324506 0.000943496 1e-05
0.0326062 0.000941702 1e-05
0.0327619 0.000939899 1e-05
0.0329175 0.000938089 1e-05
0.0330744 0.000936278 1e-05
0.0332313 0.000934433 1e-05
0.0333881 0.000932579 1e-05
[...]
POINT_DATA 11895
 FIELD attributes 1
U 3 11895 float
9.9991 	0.0033835 	0 9.99878 	0.00857283 	0 9.99915 	0.0123336 	0 9.99953 	0.0160846 	0 9.99991 	0.0198259 	0 10.003 	0.0406838 	0 10.0034 	0.01406 	0 10.0062 	0.0131944 	0 10.009 	0.0123251 	0 10.0118 	0.0114521 	0 10.0151 	0.0312109 	0 10.0176 	0.00792124 	0 10.0202 	0.00839547 	0 10.0227 	0.0088729 	0 10.0253 	0.00935354 	0 10.0255 	0.0285404 	0 10.0287 	0.0116208 	0 10.0301 	0.0132688 	0 10.0315 	0.0149274 	0 10.0329 	0.0165967 	0 10.0303 	0.032814 	0 10.0348 	0.0205607 	0 10.0356 	0.022164 	0 10.0365 	0.0237763 	0 10.0373 	0.0253979 	0 10.033 	0.0376168 	0 10.0383 	0.0290506 	0 10.0387 	0.0303343 	0 10.0392 	0.0316242 	0 10.0397 	0.0329202 	0 10.0344 	0.0415093 	0 10.0398 	0.035883 	0 10.0399 	0.0368867 	0 10.04 	0.0378943 	0 10.0401 	0.0389059 	0 10.0346 	0.0446035 	0 10.0396 	0.0411835 	0 10.0395 	0.0419533 	0 10.0393 	0.0427256 	0 10.0392 	0.0435004 	0 10.0342 	0.0470179 	0 10.0383 	0.0451674 	0 10.038 	0.0457403 	0 10.0376 	0.0463146 	0 10.0373 	0.0468905 	0 10.0335 	0.0488305 	0 10.0362 	0.0480481 	0 10.0357 	0.04846 	0 10.0353 	0.0488727 	0 10.0348 	0.0492862 	0 10.0328 	0.0501301 	0 10.0339 	0.049946 	0 10.0335 	0.0501355 	0 10.0331 	0.0503253 	0 10.0327 	0.0505152 	0 10.0323 	0.0507039 	0 10.0321 	0.050796 	0 10.0319 	0.0508882 	0 10.0318 	0.0509804 	0 10.0316 	0.0510727 	0 10.0313 	0.0510664 	0 10.0308 	0.0513193 	0 10.0301 	0.0514955 	0 10.0295 	0.0516719 	0 10.0288 	0.0518485 	0 10.0277 	0.0516967 	0 10.0277 	0.0520524 	0 10.027 	0.0521498 	0 10.0263 	0.0522474 	0 10.0256 	0.052345 	0 10.0239 	0.0519616 	0 10.0246 	0.0523826 	0 10.0239 	0.052423 	0 10.0232 	0.0524634 	0 10.0225 	0.0525039 	0 10.0202 	0.0519678 	0 10.0216 	0.0524342 	0 10.0209 	0.0524442 	0 10.0202 	0.0524541 	0 10.0196 	0.0524641 	0 10.0167 	0.0518413 	0 10.019 	0.0523292 	0 10.0185 	0.0523191 	0 10.0179 	0.052309 	0 10.0174 	0.0522989 	0 10.014 	0.0516182 	0 10.0174 	0.0519159 	0 10.0171 	0.0516429 	0 10.0168 	0.0513698 	0 10.0166 	0.0510965 	0 10.0125 	0.0500995 	0 10.0172 	0.0498056 	0 10.0173 	0.0488137 	0 10.0175 	0.0478215 	0 10.0176 	0.0468288 	0 10.013 	0.0451872 	0 10.0181 	0.0449008 	-2.94249e-21 10.0179 	0.0436662 	-7.87411e-21 10.0177 	0.0424312 	-1.28065e-20 10.0175 	0.0411958 	-1.77396e-20 10.0125 	0.0392857 	-2.30126e-20 10.0172 	0.0392992 	-3.57405e-20 10.0166 	0.0381874 	-3.56096e-20 10.0161 	0.037075 	-3.54745e-20 10.0156 	0.0359621 	-3.53353e-20 10.0105 	0.0339682 	-2.1771e-20 10.0148 	0.0342201 	-2.31807e-20 10.0141 	0.0331517 	-2.62329e-20 10.0135 	0.0320827 	-2.92868e-20 10.0128 	0.0310129 	-3.23424e-20 10.0077 	0.0288663 	-3.59506e-20 10.0116 	0.0293057 	-4.71066e-20 10.0107 	0.0283674 	-4.69743e-20 10.0098 	0.0274283 	-4.68392e-20 10.009 	0.0264884 	-4.67013e-20 10.004 	0.0243777 	-3.76163e-20 10.0073 	0.0249487 	-2.73728e-20 10.0061 	0.0242111 	-1.65141e-20 10.005 	0.0234729 	-5.65594e-21 10.0038 	0.0227341 	5.2018e-21 9.99907 	0.0208525 	1.61326e-20 10.0016 	0.0214149 	1.04157e-20 10.0002 	0.0208294 	6.531e-21 9.99885 	0.0202434 	2.64641e-21 9.99746 	0.0196569 	-1.23803e-21 9.99291 	0.018069 	-1.67018e-21 9.99474 	0.0185007 	4.63497e-21 9.99311 	0.0180021 	5.34863e-21 9.99147 	0.0175032 	6.05969e-21 9.98983 	0.0170038 	6.76815e-21 9.98556 	0.0157162 	9.26083e-22 9.98658 	0.0159579 	1.66797e-20 9.98468 	0.0155068 	1.99761e-20 9.98277 	0.0150554 	2.3268e-20 9.98086 	0.0146037 	2.65556e-20 9.97688 	0.0136008 	1.82086e-20 9.97701 	0.0136399 	1.56034e-20 9.97481 	0.0132128 	1.16165e-20 9.9726 	0.0127854 	7.62993e-21 9.97039 	0.0123577 	3.64352e-21 9.96676 	0.0116045 	-7.04266e-22 9.96587 	0.0114541 	5.36003e-21 9.96334 	0.0110346 	1.12134e-20 9.96081 	0.010615 	1.70671e-20 9.95827 	0.010195 	2.2921e-20 9.95504 	0.00964305 	2.86121e-20 9.95341 	0.00939199 	2.38949e-20 9.95096 	0.00903274 	1.90187e-20 9.9485 	0.00867333 	1.41426e-20 9.94605 	0.00831375 	9.26684e-21 9.9437 	0.00796979 	4.60502e-21 9.94324 	0.00790332 	3.76835e-21 9.94279 	0.00783684 	2.93173e-21 9.94233 	0.00777036 	2.09518e-21 9.94187 	0.00770387 	1.25868e-21 9.94063 	0.00763576 	9.26249e-23 9.93809 	0.00720923 	-6.45978e-21 9.9348 	0.00677687 	-1.26867e-20 9.9315 	0.00634429 	-1.89162e-20 9.9282 	0.0059115 	-2.51482e-20 9.91877 	0.00540452 	-2.89051e-20 9.92095 	0.0050585 	-1.73628e-20 9.91725 	0.00461648 	-5.81937e-21 9.91355 	0.00417425 	5.72406e-21 9.90984 	0.00373182 	1.72675e-20 9.89419 	0.00305589 	2.80075e-20 9.90149 	0.00286064 	3.74232e-20 9.89736 	0.00240689 	4.26284e-20 9.89323 	0.00195295 	4.78356e-20 9.88909 	0.00149881 	5.30448e-20 9.86685 	0.000593533 	5.05594e-20 9.87953 	0.000591375 	4.4592e-20 9.87496 	0.000124828 	3.86747e-20 9.87039 	-0.000341917 	3.27562e-20 9.86581 	-0.00080886 	2.68367e-20 9.83672 	-0.00197503 	2.33656e-20 9.85494 	-0.00176566 	1.17134e-20 9.84991 	-0.00224444 	-1.96753e-21 9.84488 	-0.00272344 	-1.56482e-20 9.83984 	-0.00320264 	-2.93285e-20 9.80382 	-0.00463507 	-3.79819e-20 9.82759 	-0.00421646 	-2.51576e-20 9.8221 	-0.00470641 	-2.44443e-20 9.81659 	-0.0051966 	-2.37264e-20 9.81108 	-0.00568701 	-2.30039e-20 9.7682 	-0.00737021 	-3.82131e-20 9.7974 	-0.00676163 	-3.23825e-20 9.79143 	-0.00726184 	-2.33596e-20 9.78545 	-0.0077623 	-1.43361e-20 9.77947 	-0.00826301 	-5.31185e-21 9.72998 	-0.0101656 	0 9.76431 	-0.00939904 	-2.76086e-21 9.75787 	-0.00990881 	-7.53388e-21 9.75142 	-0.0104189 	-1.23065e-20 9.74497 	-0.0109292 	-1.70788e-20 9.68926 	-0.0130083 	-1.71012e-20 9.72832 	-0.0121244 	-1.9468e-20 9.72142 	-0.0126433 	-1.93607e-20 9.71452 	-0.0131625 	-1.92526e-20 9.7076 	-0.013682 	-1.91437e-20 9.64623 	-0.0158868 	-1.80134e-20 9.68949 	-0.0149317 	-1.67143e-20 9.68214 	-0.0154594 	-1.17804e-20 9.67478 	-0.0159875 	-6.84607e-21 9.66741 	-0.016516 	-1.91134e-21 9.60104 	-0.0187911 	-2.03716e-21 9.64788 	-0.0178137 	-3.22114e-21 9.64009 	-0.0183502 	-1.19186e-20 9.6323 	-0.0188872 	-2.06153e-20 9.6245 	-0.0194245 	-2.93113e-20 9.55391 	-0.0217124 	-3.19756e-20 9.60362 	-0.0207625 	-3.18131e-22 9.59542 	-0.0213078 	5.61613e-22 9.58721 	-0.0218535 	1.44686e-21 9.57899 	-0.0223997 	2.33762e-21 9.50502 	-0.0246428 	-3.09705e-20 9.55686 	-0.0237694 	-2.86595e-20 9.54827 	-0.0243233 	-1.96082e-20 9.53967 	-0.0248778 	-1.05561e-20 9.53106 	-0.0254328 	-1.50323e-21 9.45459 	-0.027575 	0 9.5078 	-0.0268251 	0 9.49885 	-0.0273877 	0 9.48987 	-0.0279508 	0 9.48089 	-0.0285145 	0 9.40283 	-0.0305021 	0 9.45666 	-0.0299199 	5.45466e-22 9.44736 	-0.0304909 	9.90809e-21 9.43804 	-0.0310624 	1.92698e-20 9.42871 	-0.0316346 	2.86306e-20 9.34995 	-0.0334173 	3.80157e-20 9.40203 	-0.0330684 	2.83437e-20 9.39404 	-0.0336227 	3.68998e-20 9.38441 	-0.0342022 	4.59491e-20 9.36983 	-0.0348503 	5.55062e-20 9.29613 	-0.0363142 	7.11861e-20 9.34264 	-0.0362596 	5.48051e-20 9.33916 	-0.0367727 	4.40292e-20 9.32923 	-0.0373595 	3.39727e-20 9.30979 	-0.0380383 	2.65788e-20 9.24158 	-0.0391865 	3.28682e-20 9.28266 	-0.039412 	2.61603e-20 9.28297 	-0.0399296 	1.3866e-20 9.27277 	-0.0405229 	1.34003e-22 9.24932 	-0.0411804 	-1.05407e-20 9.18649 	-0.0420276 	-1.21247e-20 9.22236 	-0.0425162 	3.26387e-20 9.22573 	-0.0430817 	4.66515e-20 9.2153 	-0.0436802 	4.76098e-20 9.18866 	-0.044267 	3.29347e-20 9.13102 	-0.0448306 	-1.16901e-20 9.16197 	-0.0455629 	-9.84505e-21 9.16773 	-0.0462163 	-6.57157e-21 9.15707 	-0.0468188 	-2.3673e-21 9.12805 	-0.0472889 	0 9.07535 	-0.0475884 	0 9.10169 	-0.0485433 	0 9.10921 	-0.0493211 	0 9.09837 	-0.0499262 	0 9.06767 	-0.050239 	0 9.01963 	-0.0502962 	0 9.04171 	-0.051452 	0 9.05043 	-0.0523865 	0 9.03942 	-0.0529932 	0 9.00772 	-0.0531138 	0 8.96401 	-0.0529521 	0 8.9822 	-0.0542865 	0 8.99161 	-0.0554047 	1.84444e-21 8.98046 	-0.0560121 	8.02801e-21 8.94833 	-0.0559114 	2.16031e-20 8.90862 	-0.0555546 	3.78498e-20 8.92328 	-0.0570445 	1.46496e-19 8.93298 	-0.0583679 	2.3403e-19 8.92171 	-0.0589749 	2.31488e-19 8.88963 	-0.05863 	1.38474e-19 8.85357 	-0.058102 	2.80847e-20 8.86507 	-0.0597243 	-2.72957e-20 8.87472 	-0.0612682 	-7.88886e-20 8.86335 	-0.0618739 	-8.60482e-20 8.83173 	-0.0612683 	-4.88937e-20 8.79898 	-0.060593 	-9.2023e-21 8.80765 	-0.0623249 	-7.06406e-21 8.81627 	-0.0640587 	-4.92325e-21 8.80453 	-0.064625 	8.54206e-21 8.77472 	-0.0638265 	1.47712e-20 8.74493 	-0.0630275 	2.10016e-20 8.75112 	-0.0648471 	1.42419e-20 8.75725 	-0.0666686 	7.47829e-21 8.74583 	-0.0672051 	1.77718e-20 8.71867 	-0.0663059 	4.70195e-20 8.69154 	-0.065406 	7.62686e-20 8.69555 	-0.0672926 	1.27417e-19 8.69949 	-0.0691811 	1.78562e-19 8.68845 	-0.0696875 	1.65408e-19 8.66364 	-0.0687095 	9.58134e-20 8.63886 	-0.0677307 	2.6217e-20 8.64098 	-0.0696648 	1.5358e-20 8.64303 	-0.0716009 	4.50235e-21 8.6324 	-0.0720776 	-6.54097e-21 8.60967 	-0.0710414 	-1.83231e-20 8.58698 	-0.0700043 	-3.01065e-20 8.58746 	-0.0719684 	-1.80228e-20 8.58786 	-0.0739344 	-5.93679e-21 8.57769 	-0.074382 	4.24828e-21 8.5568 	-0.0733069 	1.31314e-20 8.53594 	-0.072231 	2.20161e-20 8.53501 	-0.0742091 	1.2692e-20 8.534 	-0.0761892 	3.36438e-21 8.52432 	-0.0766089 	6.90037e-21 8.50504 	-0.0755126 	1.59112e-20 8.4858 	-0.0744154 	2.49193e-20 8.48366 	-0.0763937 	5.58361e-20 8.48143 	-0.078374 	8.67592e-20 8.47226 	-0.0787674 	8.32834e-20 8.45441 	-0.0776657 	4.15336e-20 8.43659 	-0.0765631 	-2.21094e-22 8.43341 	-0.0785299 	3.63385e-21 8.43015 	-0.0804985 	7.49787e-21 8.42151 	-0.0808674 	-1.13343e-20 8.4049 	-0.0797744 	-2.89891e-20 8.38834 	-0.0786805 	-4.6643e-20 8.38427 	-0.0806259 	-1.45314e-19 8.38005 	-0.082542 	-2.41974e-19 8.37168 	-0.0828521 	-2.34484e-19 8.35653 	-0.0818473 	-1.35468e-19 8.34106 	-0.0807744 	-3.17656e-20 8.33624 	-0.0826906 	-1.94312e-20 8.33085 	-0.0843679 	-7.59099e-21 8.32262 	-0.0846812 	1.44881e-21 8.30927 	-0.0838934 	1.58784e-20 8.29478 	-0.0828517 	3.15493e-20 8.28931 	-0.084733 	5.34033e-20 8.28307 	-0.0861729 	6.60914e-20 8.27497 	-0.086491 	5.55578e-20 8.26313 	-0.0859221 	3.01055e-20 8.2495 	-0.0849202 	-2.61866e-21 8.24348 	-0.0867624 	-8.46002e-20 8.23662 	-0.0879705 	-1.32595e-19 8.22865 	-0.0882949 	-1.33285e-19 8.21807 	-0.0879426 	-9.90818e-20 8.20521 	-0.086987 	-3.37921e-20 8.19872 	-0.0887876 	-2.41294e-20 8.19146 	-0.0897728 	-2.14168e-20 8.1836 	-0.0901049 	-2.42666e-20 8.17408 	-0.0899638 	-3.08252e-20 8.16189 	-0.0890595 	-4.33586e-20 8.15501 	-0.0908174 	-1.05637e-19 8.14752 	-0.0915911 	-1.21939e-19 8.13977 	-0.0919325 	-1.18051e-19 8.13111 	-0.0919951 	-1.00021e-19 8.11954 	-0.0911461 	-3.57929e-20 8.11231 	-0.0928619 	-2.63247e-20 8.10474 	-0.0934372 	-1.72488e-20 8.09709 	-0.0937898 	-8.25013e-21 8.08915 	-0.0940475 	6.9743e-22 8.07813 	-0.0932566 	9.08987e-21 8.0706 	-0.094932 	1.75122e-22 8.06306 	-0.095323 	-2.52675e-21 8.05551 	-0.0956885 	-5.10436e-21 8.04794 	-0.0960543 	-7.68221e-21 8.03762 	-0.0954008 	9.43012e-21 8.02989 	-0.0968792 	2.48611e-20 8.02244 	-0.097259 	3.53566e-20 8.01498 	-0.0976391 	4.58491e-20 8.0075 	-0.0980194 	5.63386e-20 7.99801 	-0.0975877 	4.45818e-20 7.9902 	-0.0988586 	5.79769e-20 7.98283 	-0.0992545 	6.0036e-20 7.97545 	-0.0996507 	6.20935e-20 7.96805 	-0.100047 	6.41494e-20 7.95925 	-0.0998261 	4.27591e-20 7.95146 	-0.100905 	3.92263e-20 7.94417 	-0.101318 	2.81732e-20 7.93686 	-0.101732 	1.71213e-20 7.92953 	-0.102146 	6.07072e-21 7.92131 	-0.102125 	-3.72856e-21 7.91363 	-0.103026 	0 7.90641 	-0.103458 	0 7.89917 	-0.10389 	0 7.89191 	-0.104323 	0 7.88415 	-0.104492 	0 7.87665 	-0.105229 	3.35782e-21 7.86949 	-0.105681 	7.93751e-21 7.86231 	-0.106134 	1.25177e-20 7.85511 	-0.106586 	1.70985e-20 7.84772 	-0.106936 	2.07436e-20 7.84271 	-0.107371 	2.13877e-20 7.83786 	-0.107695 	2.15932e-20 7.833 	-0.108019 	2.17991e-20 7.82813 	-0.108343 	2.20056e-20 7.82339 	-0.108658 	2.22067e-20 7.82099 	-0.108811 	2.25121e-20 7.81859 	-0.108964 	2.28178e-20 7.81619 	-0.109117 	2.31239e-20 7.81378 	-0.10927 	2.34304e-20 7.81173 	-0.109375 	2.19558e-20 7.80419 	-0.109919 	1.34277e-20 7.7968 	-0.110418 	4.64215e-21 7.7894 	-0.110918 	-4.14343e-21 7.78197 	-0.111418 	-1.2929e-20 7.77596 	-0.111724 	-2.06247e-20 7.7679 	-0.112424 	-2.58505e-20 7.76055 	-0.112948 	-2.29068e-20 7.75319 	-0.113471 	-1.99675e-20 7.7458 	-0.113995 	-1.70328e-20 7.74087 	-0.114184 	-1.19639e-21 7.7323 	-0.115038 	-1.44619e-20 7.72499 	-0.115586 	-1.15084e-20 7.71765 	-0.116134 	-8.56083e-21 7.7103 	-0.116682 	-5.61925e-21 7.70642 	-0.116762 	1.81018e-20 7.69734 	-0.117764 	1.08698e-20 7.69006 	-0.118338 	-1.26262e-21 7.68275 	-0.118911 	-1.33943e-20 7.67541 	-0.119486 	-2.55253e-20 7.67256 	-0.119461 	-3.43936e-20 7.66297 	-0.120609 	-2.72509e-20 7.65571 	-0.12121 	-2.66529e-20 7.64841 	-0.121811 	-2.60519e-20 7.64109 	-0.122412 	-2.54482e-20 7.63922 	-0.122291 	-3.30139e-20 7.62924 	-0.12356 	-2.44704e-20 7.62189 	-0.124211 	-1.20992e-20 7.6146 	-0.12484 	4.03459e-22 7.60811 	-0.125363 	1.16399e-20 7.60638 	-0.125259 	1.54716e-20 7.59647 	-0.126539 	4.39645e-20 7.58856 	-0.127348 	5.1589e-20 7.58128 	-0.128007 	5.26187e-20 7.57583 	-0.128425 	4.35171e-20 7.57399 	-0.12837 	1.4663e-20 7.56413 	-0.129664 	1.04936e-20 7.55567 	-0.130627 	1.01888e-23 7.54838 	-0.131318 	-1.56811e-20 7.54394 	-0.131637 	-3.34543e-20 7.54198 	-0.131633 	-5.30332e-20 7.53217 	-0.132942 	-1.28482e-19 7.52317 	-0.134056 	-1.79989e-19 7.51586 	-0.134779 	-1.83155e-19 7.5124 	-0.135005 	-1.28175e-19 7.51031 	-0.135053 	-5.23315e-20 7.50055 	-0.136378 	-3.23744e-20 7.491 	-0.137641 	-1.36394e-20 7.48368 	-0.138398 	-4.87706e-21 7.48115 	-0.138536 	-7.7924e-21 7.47894 	-0.138635 	-1.1451e-20 7.4692 	-0.139978 	-3.85438e-20 7.45942 	-0.141322 	-6.56349e-20 7.45251 	-0.142083 	-6.5556e-20 7.45016 	-0.142234 	-3.80873e-20 7.44781 	-0.142384 	-1.06176e-20 7.4381 	-0.143748 	-6.604e-21 7.42834 	-0.145112 	-2.58889e-21 7.42187 	-0.145902 	0 7.41938 	-0.146105 	0 7.41688 	-0.146308 	0 7.40719 	-0.147694 	0 7.39745 	-0.149079 	0 7.3914 	-0.149901 	-1.43637e-21 7.38876 	-0.150157 	-4.96006e-21 7.38611 	-0.150413 	-8.48356e-21 7.37643 	-0.151822 	-3.45119e-20 7.36669 	-0.153232 	-6.05386e-20 7.36106 	-0.154086 	-5.9916e-20 7.35826 	-0.154397 	-3.00209e-20 7.35546 	-0.154707 	-1.24732e-22 7.34577 	-0.156143 	2.94382e-20 7.33616 	-0.157562 	5.81039e-20 7.33097 	-0.158425 	5.66959e-20 7.32783 	-0.158832 	2.6385e-20 7.32486 	-0.159197 	-6.57752e-21 7.31516 	-0.160661 	-2.82752e-21 7.30659 	-0.161979 	-4.89056e-23 7.30129 	-0.162884 	-1.24487e-23 7.29742 	-0.163471 	-4.56661e-21 7.29428 	-0.163891 	-1.15011e-20 7.28456 	-0.165384 	-3.83471e-21 7.27699 	-0.166606 	0 7.27158 	-0.167555 	0 7.26699 	-0.168318 	2.6373e-21 7.26367 	-0.168795 	9.33824e-21 7.25392 	-0.17032 	1.90633e-21 7.24733 	-0.17145 	-5.38919e-21 7.2418 	-0.172444 	-1.26389e-20 7.23649 	-0.173382 	-1.90743e-20 7.23299 	-0.173916 	-1.95656e-20 7.2232 	-0.175474 	-7.60632e-20 7.21755 	-0.176518 	-7.43587e-20 7.21189 	-0.177559 	-7.22249e-20 7.2062 	-0.178599 	-7.00781e-20 7.20218 	-0.179263 	-2.64573e-20 7.19336 	-0.180732 	-2.42274e-21 7.18761 	-0.18182 	2.66416e-21 7.18181 	-0.182909 	7.73964e-21 7.17598 	-0.183997 	1.28037e-20 7.1712 	-0.184846 	8.77933e-21 7.16336 	-0.186226 	3.51302e-21 7.15746 	-0.187363 	1.04728e-20 7.15152 	-0.188501 	1.74348e-20 7.14554 	-0.189639 	2.43991e-20 7.14 	-0.19067 	3.14196e-20 7.1342 	-0.191751 	4.45129e-20 7.12924 	-0.192725 	4.82773e-20 7.12426 	-0.193698 	5.20335e-20 7.11925 	-0.194672 	5.57815e-20 7.11449 	-0.195593 	5.93203e-20 7.11325 	-0.195818 	6.03248e-20 7.11201 	-0.196043 	6.1329e-20 7.11078 	-0.196268 	6.2333e-20 7.10954 	-0.196493 	6.33366e-20 7.10832 	-0.196694 	6.47247e-20 7.1019 	-0.197955 	5.33899e-20 7.09536 	-0.199193 	4.39363e-20 7.08877 	-0.200431 	3.4464e-20 7.08214 	-0.201669 	2.49731e-20 7.07559 	-0.202761 	2.89953e-20 7.06942 	-0.204197 	3.44125e-20 7.0627 	-0.205488 	2.91221e-20 7.05593 	-0.20678 	2.384e-20 7.04911 	-0.208071 	1.85661e-20 7.04248 	-0.209096 	7.13306e-23 7.03655 	-0.210707 	1.40846e-21 7.02964 	-0.212053 	7.15568e-21 7.02268 	-0.213399 	1.29001e-20 7.01566 	-0.214744 	1.86416e-20 7.00892 	-0.215705 	2.43933e-20 7.0031 	-0.217454 	1.78412e-20 6.99612 	-0.218893 	1.63841e-20 6.98895 	-0.220294 	1.55384e-20 6.98182 	-0.221582 	1.75281e-20 6.97486 	-0.222594 	2.65213e-20 6.96882 	-0.224392 	4.12249e-20 6.96208 	-0.226013 	4.86143e-20 6.95469 	-0.22747 	4.92223e-20 6.94743 	-0.228691 	3.99552e-20 6.94024 	-0.229765 	2.45463e-20 6.93397 	-0.231613 	1.54094e-20 6.92747 	-0.233416 	8.07451e-21 6.91985 	-0.234929 	1.26348e-20 6.91244 	-0.236084 	2.31229e-20 6.905 	-0.237221 	3.38963e-20 6.89848 	-0.239119 	-1.75552e-21 6.89189 	-0.241016 	-3.74146e-20 6.88443 	-0.242563 	-3.77268e-20 6.87678 	-0.243763 	-9.72855e-22 6.86907 	-0.244962 	3.57806e-20 6.86229 	-0.24691 	4.35317e-20 6.85544 	-0.248857 	5.12769e-20 6.84831 	-0.250465 	4.71002e-20 6.84038 	-0.251726 	2.97735e-20 6.8324 	-0.252986 	1.24425e-20 6.82534 	-0.254983 	-1.5957e-20 6.81822 	-0.256971 	-4.37528e-20 6.81126 	-0.258612 	-4.51038e-20 6.80318 	-0.259969 	-3.27078e-20 6.79491 	-0.261289 	-1.85164e-20 6.78757 	-0.263334 	-1.00952e-20 6.78024 	-0.265239 	-5.09536e-21 6.77298 	-0.266932 	-5.24057e-21 6.76513 	-0.268488 	-8.7178e-21 6.75656 	-0.269866 	-1.64728e-20 6.74891 	-0.271957 	-8.22246e-21 6.74136 	-0.273776 	-2.50857e-21 6.73377 	-0.275521 	2.51836e-21 6.72612 	-0.277266 	7.54524e-21 6.71727 	-0.278708 	5.68842e-21 6.70934 	-0.280781 	2.60448e-20 6.7015 	-0.282575 	3.00481e-20 6.69359 	-0.284369 	3.40443e-20 6.6856 	-0.286163 	3.80334e-20 6.67698 	-0.287806 	3.1605e-20 6.66894 	-0.289753 	3.03574e-20 6.6609 	-0.291561 	2.89076e-20 6.65278 	-0.29337 	2.74659e-20 6.6446 	-0.295178 	2.60325e-20 6.63697 	-0.29685 	2.47138e-20 6.63672 	-0.296909 	2.46496e-20 6.63648 	-0.296968 	2.45854e-20 6.63623 	-0.297027 	2.45212e-20 6.63599 	-0.297086 	2.4457e-20 6.63573 	-0.29714 	2.42333e-20 6.62807 	-0.299031 	2.32282e-20 6.62031 	-0.300916 	2.22819e-20 6.61249 	-0.302801 	2.13295e-20 6.6046 	-0.304686 	2.03709e-20 6.59634 	-0.306415 	2.16114e-20 6.5892 	-0.308512 	2.82983e-20 6.5811 	-0.310437 	2.89611e-20 6.57293 	-0.312363 	2.96299e-20 6.56469 	-0.314288 	3.03046e-20 6.55577 	-0.315907 	1.89758e-20 6.54916 	-0.318208 	1.39431e-20 6.5407 	-0.320172 	1.10352e-20 6.53217 	-0.322135 	8.12261e-21 6.52339 	-0.324009 	6.40681e-21 6.51397 	-0.325602 	8.53334e-21 6.50701 	-0.32794 	5.97648e-21 6.49906 	-0.330105 	4.41488e-21 6.49016 	-0.332102 	3.82631e-21 6.48069 	-0.333854 	1.96888e-21 6.4709 	-0.335485 	-5.15051e-22 6.46353 	-0.337849 	7.54052e-22 6.45608 	-0.340211 	2.018e-21 6.44677 	-0.342208 	1.3995e-21 6.43667 	-0.343874 	-1.12277e-21 6.4265 	-0.34554 	-3.64967e-21 6.41872 	-0.347926 	-2.3948e-21 6.41085 	-0.350312 	-1.14528e-21 6.40177 	-0.352358 	0 6.39128 	-0.354055 	0 6.38072 	-0.355752 	0 6.37251 	-0.358157 	0 6.36418 	-0.360545 	0 6.35508 	-0.362597 	0 6.34448 	-0.364379 	0 6.33351 	-0.366102 	0 6.32486 	-0.368523 	0 6.31574 	-0.370757 	0 6.30621 	-0.372828 	0 6.29622 	-0.374828 	-7.31611e-22 6.28483 	-0.376574 	-4.14046e-21 6.27571 	-0.378996 	2.26693e-24 6.26581 	-0.381082 	7.67205e-23 6.25582 	-0.383167 	1.51228e-22 6.24575 	-0.385251 	2.25789e-22 6.23463 	-0.38715 	-7.75562e-22 6.22591 	-0.389154 	6.03081e-21 6.21679 	-0.390999 	4.59224e-21 6.20761 	-0.392845 	3.14438e-21 6.19837 	-0.394689 	1.6872e-21 6.18966 	-0.396413 	3.15831e-22 6.18831 	-0.396688 	1.07388e-22 6.18697 	-0.396962 	-1.01252e-22 6.18562 	-0.397237 	-3.10088e-22 6.18428 	-0.397511 	-5.19122e-22 6.18297 	-0.397763 	1.79103e-22 6.17266 	-0.399897 	-2.4263e-21 6.16222 	-0.402003 	-5.40568e-21 6.15169 	-0.404108 	-8.38223e-21 6.14108 	-0.406213 	-1.13559e-20 6.13078 	-0.408119 	-1.22894e-20 6.12035 	-0.410466 	-1.15189e-20 6.10943 	-0.412574 	-1.07596e-20 6.09844 	-0.414681 	-9.99467e-21 6.08744 	-0.416744 	-1.00938e-20 6.07692 	-0.418518 	-1.59779e-20 6.06615 	-0.420938 	-9.7557e-21 6.05499 	-0.423184 	-7.7063e-21 6.04351 	-0.425289 	-9.0494e-21 6.03237 	-0.427167 	-1.7733e-20 6.02135 	-0.428939 	-2.98218e-20 6.01011 	-0.43135 	-6.45858e-20 5.99876 	-0.433759 	-9.93487e-20 5.98703 	-0.435829 	-1.00342e-19 5.97558 	-0.437596 	-5.78763e-20 5.96404 	-0.439362 	-1.53831e-20 5.95231 	-0.441758 	-5.13716e-20 5.94047 	-0