# vtk DataFile Version 2.0
track0
ASCII
DATASET POLYDATA
POINTS 11945 float
-0.0205 0.001 1e-05
-0.0202034 0.0010001 1e-05
-0.0199069 0.00100036 1e-05
-0.0196103 0.00100072 1e-05
-0.0193137 0.0010012 1e-05
-0.0190172 0.00100179 1e-05
-0.0187132 0.00100303 1e-05
-0.0184093 0.00100346 1e-05
-0.0181054 0.00100387 1e-05
-0.0178015 0.00100425 1e-05
-0.0174976 0.0010046 1e-05
-0.0172058 0.00100552 1e-05
-0.016914 0.00100576 1e-05
-0.0166222 0.00100601 1e-05
-0.0163305 0.00100628 1e-05
-0.0160387 0.00100656 1e-05
-0.0157586 0.00100736 1e-05
-0.0154784 0.0010077 1e-05
-0.0151983 0.00100808 1e-05
-0.0149182 0.00100851 1e-05
-0.0146381 0.00100898 1e-05
-0.0143692 0.00100988 1e-05
-0.0141002 0.00101044 1e-05
-0.0138313 0.00101105 1e-05
-0.0135624 0.0010117 1e-05
-0.0132934 0.0010124 1e-05
-0.0130353 0.00101338 1e-05
-0.0127771 0.00101414 1e-05
-0.0125189 0.00101494 1e-05
-0.0122607 0.00101577 1e-05
-0.0120025 0.00101664 1e-05
-0.0117547 0.00101768 1e-05
-0.0115068 0.00101859 1e-05
-0.0112589 0.00101952 1e-05
-0.0110111 0.00102048 1e-05
-0.0107632 0.00102147 1e-05
-0.0105252 0.00102255 1e-05
-0.0102873 0.00102355 1e-05
-0.0100493 0.00102457 1e-05
-0.00981133 0.00102561 1e-05
-0.00957337 0.00102667 1e-05
-0.00934491 0.00102777 1e-05
-0.00911645 0.00102882 1e-05
-0.00888799 0.00102989 1e-05
-0.00865954 0.00103098 1e-05
-0.00843108 0.00103208 1e-05
-0.00821175 0.00103318 1e-05
-0.00799242 0.00103427 1e-05
-0.00777309 0.00103536 1e-05
-0.00755376 0.00103647 1e-05
-0.00733443 0.00103759 1e-05
-0.00723129 0.00103812 1e-05
-0.00712815 0.00103865 1e-05
-0.00702501 0.00103919 1e-05
-0.00692187 0.00103972 1e-05
-0.00682001 0.00104025 1e-05
-0.00671233 0.00104082 1e-05
-0.00660465 0.00104138 1e-05
-0.00649696 0.00104195 1e-05
-0.00638928 0.00104252 1e-05
-0.0062816 0.00104309 1e-05
-0.00607944 0.00104417 1e-05
-0.00587729 0.00104525 1e-05
-0.00567514 0.00104634 1e-05
-0.00547298 0.00104743 1e-05
-0.00527083 0.00104853 1e-05
-0.00507675 0.00104958 1e-05
-0.00488267 0.00105064 1e-05
-0.0046886 0.00105171 1e-05
-0.00449452 0.00105278 1e-05
-0.00430044 0.00105386 1e-05
-0.00411412 0.00105489 1e-05
-0.0039278 0.00105593 1e-05
-0.00374147 0.00105697 1e-05
-0.00355515 0.00105801 1e-05
-0.00336883 0.00105906 1e-05
-0.00318995 0.00106006 1e-05
-0.00301107 0.00106108 1e-05
-0.00283219 0.00106209 1e-05
-0.00265331 0.00106311 1e-05
-0.00247443 0.00106414 1e-05
-0.0023027 0.00106511 1e-05
-0.00213097 0.0010661 1e-05
-0.00195924 0.0010671 1e-05
-0.00178751 0.00106809 1e-05
-0.00161577 0.00106909 1e-05
-0.0014509 0.00107005 1e-05
-0.00128603 0.00107101 1e-05
-0.00112116 0.00107198 1e-05
-0.00095629 0.00107295 1e-05
-0.000791418 0.00107392 1e-05
-0.000633135 0.00107484 1e-05
-0.000474851 0.00107576 1e-05
-0.000316567 0.00107667 1e-05
-0.000158284 0.00107758 1e-05
0 0.00107847 1e-05
0.000105677 0.00107906 1e-05
0.000211355 0.00107964 1e-05
0.000317032 0.00108022 1e-05
0.00042271 0.00108079 1e-05
0.000528387 0.00108135 1e-05
0.000634886 0.0010819 1e-05
0.000741385 0.00108246 1e-05
0.000847884 0.00108301 1e-05
0.000954384 0.00108355 1e-05
0.00106088 0.00108409 1e-05
0.00116821 0.00108462 1e-05
0.00127554 0.00108516 1e-05
0.00138286 0.0010857 1e-05
0.00149019 0.00108623 1e-05
0.00159752 0.00108676 1e-05
0.00170568 0.00108728 1e-05
0.00181384 0.00108782 1e-05
0.001922 0.00108835 1e-05
0.00203016 0.00108889 1e-05
0.00213833 0.00108942 1e-05
0.00224733 0.00108995 1e-05
0.00235633 0.00109049 1e-05
0.00246533 0.00109104 1e-05
0.00257433 0.00109159 1e-05
0.00268334 0.00109215 1e-05
0.00279319 0.00109269 1e-05
0.00290304 0.00109326 1e-05
0.00301289 0.00109384 1e-05
0.00312274 0.00109443 1e-05
0.00323259 0.00109502 1e-05
0.00334329 0.0010956 1e-05
0.00345399 0.00109621 1e-05
0.0035647 0.00109683 1e-05
0.0036754 0.00109746 1e-05
0.00378611 0.0010981 1e-05
0.00389767 0.00109874 1e-05
0.00400924 0.0010994 1e-05
0.0041208 0.00110007 1e-05
0.00423236 0.00110075 1e-05
0.00434393 0.00110144 1e-05
0.00445636 0.00110213 1e-05
0.00456879 0.00110285 1e-05
0.00468123 0.00110358 1e-05
0.00479366 0.00110432 1e-05
0.00490609 0.00110507 1e-05
0.0050194 0.00110582 1e-05
0.0051327 0.0011066 1e-05
0.00524601 0.00110738 1e-05
0.00535931 0.00110818 1e-05
0.00547262 0.00110899 1e-05
0.00558681 0.00110981 1e-05
0.005701 0.00111065 1e-05
0.00581518 0.00111149 1e-05
0.00592937 0.00111235 1e-05
0.00604356 0.00111322 1e-05
0.00615863 0.0011141 1e-05
0.00627371 0.001115 1e-05
0.00638878 0.00111591 1e-05
0.00650386 0.00111683 1e-05
0.00661893 0.00111777 1e-05
0.0067349 0.00111871 1e-05
0.00685087 0.00111967 1e-05
0.00696684 0.00112064 1e-05
0.00708281 0.00112162 1e-05
0.00719878 0.00112261 1e-05
0.00731565 0.00112361 1e-05
0.00743252 0.00112463 1e-05
0.00754939 0.00112566 1e-05
0.00766626 0.0011267 1e-05
0.00778313 0.00112775 1e-05
0.00790091 0.00112881 1e-05
0.00801869 0.00112989 1e-05
0.00813647 0.00113097 1e-05
0.00825425 0.00113207 1e-05
0.00837203 0.00113317 1e-05
0.00849073 0.00113429 1e-05
0.00860942 0.00113542 1e-05
0.00872812 0.00113656 1e-05
0.00884681 0.00113771 1e-05
0.00896551 0.00113887 1e-05
0.00908513 0.00114004 1e-05
0.00920475 0.00114122 1e-05
0.00932437 0.00114241 1e-05
0.00944398 0.00114361 1e-05
0.0095636 0.00114482 1e-05
0.00968415 0.00114604 1e-05
0.0098047 0.00114727 1e-05
0.00992525 0.00114851 1e-05
0.0100458 0.00114976 1e-05
0.0101663 0.00115101 1e-05
0.0102878 0.00115227 1e-05
0.0104093 0.00115355 1e-05
0.0105308 0.00115484 1e-05
0.0106523 0.00115613 1e-05
0.0107738 0.00115743 1e-05
0.0108962 0.00115873 1e-05
0.0110186 0.00116005 1e-05
0.0111411 0.00116138 1e-05
0.0112635 0.00116271 1e-05
0.0113859 0.00116404 1e-05
0.0115093 0.00116538 1e-05
0.0116327 0.00116674 1e-05
0.0117561 0.00116811 1e-05
0.0118794 0.00116948 1e-05
0.0120028 0.00117085 1e-05
0.0121272 0.00117222 1e-05
0.0122515 0.00117362 1e-05
0.0123759 0.00117501 1e-05
0.0125002 0.00117642 1e-05
0.0126245 0.00117782 1e-05
0.0127498 0.00117922 1e-05
0.0128752 0.00118065 1e-05
0.0130005 0.00118208 1e-05
0.0131258 0.00118351 1e-05
0.0132511 0.00118494 1e-05
0.0133774 0.00118637 1e-05
0.0135036 0.00118782 1e-05
0.0136299 0.00118927 1e-05
0.0137562 0.00119072 1e-05
0.0138825 0.00119218 1e-05
0.0140098 0.00119363 1e-05
0.014137 0.0011951 1e-05
0.0142643 0.00119657 1e-05
0.0143915 0.00119805 1e-05
0.0145188 0.00119952 1e-05
0.0146471 0.00120099 1e-05
0.0147753 0.00120248 1e-05
0.0149036 0.00120397 1e-05
0.0150318 0.00120545 1e-05
0.0151601 0.00120694 1e-05
0.0152893 0.00120842 1e-05
0.0154186 0.00120992 1e-05
0.0155478 0.00121143 1e-05
0.0156771 0.00121293 1e-05
0.0158063 0.00121443 1e-05
0.0159366 0.00121591 1e-05
0.0160668 0.00121742 1e-05
0.0161971 0.00121893 1e-05
0.0163273 0.00122044 1e-05
0.0164576 0.00122194 1e-05
0.0165889 0.00122343 1e-05
0.0167201 0.00122495 1e-05
0.0168514 0.00122646 1e-05
0.0169827 0.00122797 1e-05
0.0171139 0.00122948 1e-05
0.0172462 0.00123097 1e-05
0.0173785 0.00123248 1e-05
0.0175108 0.00123399 1e-05
0.0176431 0.0012355 1e-05
0.0177754 0.001237 1e-05
0.0179087 0.00123849 1e-05
0.018042 0.00124 1e-05
0.0181753 0.0012415 1e-05
0.0183087 0.00124301 1e-05
0.018442 0.0012445 1e-05
0.0185763 0.00124598 1e-05
0.0187107 0.00124748 1e-05
0.018845 0.00124898 1e-05
0.0189794 0.00125047 1e-05
0.0191137 0.00125196 1e-05
0.0192491 0.00125343 1e-05
0.0193845 0.00125492 1e-05
0.0195199 0.0012564 1e-05
0.0196553 0.00125788 1e-05
0.0197907 0.00125935 1e-05
0.0199272 0.00126081 1e-05
0.0200636 0.00126228 1e-05
0.0202001 0.00126375 1e-05
0.0203365 0.00126521 1e-05
0.020473 0.00126667 1e-05
0.0206105 0.0012681 1e-05
0.020748 0.00126956 1e-05
0.0208855 0.001271 1e-05
0.021023 0.00127244 1e-05
0.0211606 0.00127388 1e-05
0.0212991 0.0012753 1e-05
0.0214377 0.00127673 1e-05
0.0215763 0.00127815 1e-05
0.0217149 0.00127957 1e-05
0.0218535 0.00128098 1e-05
0.0219931 0.00128237 1e-05
0.0221328 0.00128377 1e-05
0.0222724 0.00128517 1e-05
0.0224121 0.00128656 1e-05
0.0225517 0.00128794 1e-05
0.0226925 0.00128931 1e-05
0.0228332 0.00129068 1e-05
0.022974 0.00129205 1e-05
0.0231147 0.00129341 1e-05
0.0232555 0.00129476 1e-05
0.0233973 0.0012961 1e-05
0.0235391 0.00129744 1e-05
0.023681 0.00129877 1e-05
0.0238228 0.00130009 1e-05
0.0239647 0.00130141 1e-05
0.0241076 0.00130271 1e-05
0.0242505 0.00130402 1e-05
0.0243935 0.00130531 1e-05
0.0245364 0.00130659 1e-05
0.0246794 0.00130787 1e-05
0.0248234 0.00130914 1e-05
0.0249675 0.0013104 1e-05
0.0251115 0.00131166 1e-05
0.0252556 0.0013129 1e-05
0.0253996 0.00131413 1e-05
0.0255448 0.00131536 1e-05
0.02569 0.00131658 1e-05
0.0258351 0.00131778 1e-05
0.0259803 0.00131898 1e-05
0.0261255 0.00132016 1e-05
0.0262718 0.00132135 1e-05
0.0264181 0.00132251 1e-05
0.0265644 0.00132367 1e-05
0.0267107 0.00132481 1e-05
0.026857 0.00132594 1e-05
0.0270044 0.00132708 1e-05
0.0271519 0.00132819 1e-05
0.0272993 0.00132929 1e-05
0.0274468 0.00133037 1e-05
0.0275942 0.00133145 1e-05
0.0277428 0.00133252 1e-05
0.0278914 0.00133358 1e-05
0.0280399 0.00133461 1e-05
0.0281885 0.00133564 1e-05
0.0283371 0.00133665 1e-05
0.0284869 0.00133766 1e-05
0.0286366 0.00133865 1e-05
0.0287863 0.00133962 1e-05
0.0289361 0.00134058 1e-05
0.0290858 0.00134152 1e-05
0.0292367 0.00134247 1e-05
0.0293876 0.00134338 1e-05
0.0295385 0.00134428 1e-05
0.0296894 0.00134517 1e-05
0.0298403 0.00134604 1e-05
0.0299924 0.00134691 1e-05
0.0301445 0.00134775 1e-05
0.0302966 0.00134857 1e-05
0.0304486 0.00134938 1e-05
0.0306007 0.00135017 1e-05
0.030754 0.00135096 1e-05
0.0309072 0.00135172 1e-05
0.0310605 0.00135246 1e-05
0.0312138 0.00135318 1e-05
0.031367 0.00135389 1e-05
0.0315215 0.00135459 1e-05
0.0316759 0.00135526 1e-05
0.0318304 0.00135591 1e-05
0.0319848 0.00135654 1e-05
0.0321393 0.00135715 1e-05
0.0322949 0.00135776 1e-05
0.0324506 0.00135833 1e-05
0.0326062 0.00135888 1e-05
0.0327619 0.00135941 1e-05
0.0329175 0.00135992 1e-05
0.0330744 0.00136042 1e-05
0.0332313 0.00136089 1e-05
0.0333881 0.00136133 1e-05
0.033545 0.00136175 1e-05
0.0337019 0.00136215 1e-05
0.0338599 0.00136253 1e-05
0.034018 0.00136288 1e-05
0.0341761 0.00136321 1e-05
0.0343342 0.0013635 1e-05
0.0344923 0.00136378 1e-05
[...]
POINT_DATA 11945
 FIELD attributes 2
p 1 11945 float
-5.52914 -5.52141 -5.5133 -5.50516 -5.49697 -5.49733 -5.47001 -5.48577 -5.50151 -5.51724 -5.57796 -5.58357 -5.62179 -5.66001 -5.69824 -5.75912 -5.75763 -5.78381 -5.80999 -5.8362 -5.88175 -5.88458 -5.90685 -5.92913 -5.95144 -5.98832 -5.99631 -6.0167 -6.03709 -6.0575 -6.08719 -6.09701 -6.11461 -6.13222 -6.14983 -6.17305 -6.18352 -6.19871 -6.2139 -6.22909 -6.24744 -6.2583 -6.27178 -6.28525 -6.29873 -6.3137 -6.32467 -6.33684 -6.34902 -6.3612 -6.37376 -6.37889 -6.38433 -6.38976 -6.39519 -6.40056 -6.40623 -6.41191 -6.41758 -6.42326 -6.42868 -6.43902 -6.44917 -6.45933 -6.46948 -6.47902 -6.48881 -6.49812 -6.50743 -6.51675 -6.52523 -6.53445 -6.54301 -6.55157 -6.56013 -6.56774 -6.57646 -6.58441 -6.59235 -6.6003 -6.60727 -6.61586 -6.62369 -6.63153 -6.63936 -6.64629 -6.65617 -6.66573 -6.6753 -6.68487 -6.69372 -6.70486 -6.71514 -6.72543 -6.73571 -6.74427 -6.75178 -6.7567 -6.76161 -6.76652 -6.76919 -6.77307 -6.77333 -6.77358 -6.77384 -6.77166 -6.77513 -6.77469 -6.77425 -6.77381 -6.7703 -6.77428 -6.77379 -6.7733 -6.77281 -6.76841 -6.77168 -6.77043 -6.76917 -6.76792 -6.76263 -6.76526 -6.7639 -6.76255 -6.76119 -6.75619 -6.75874 -6.75802 -6.7573 -6.75659 -6.75279 -6.75552 -6.75568 -6.75584 -6.756 -6.7537 -6.75674 -6.75784 -6.75894 -6.76004 -6.75928 -6.76279 -6.76491 -6.76703 -6.76915 -6.76992 -6.77408 -6.77728 -6.78048 -6.78368 -6.78595 -6.7909 -6.79521 -6.79952 -6.80383 -6.80752 -6.81336 -6.81877 -6.82419 -6.82961 -6.83463 -6.84141 -6.84791 -6.85441 -6.86091 -6.86715 -6.8749 -6.88245 -6.89 -6.89755 -6.90489 -6.91363 -6.92217 -6.93071 -6.93926 -6.94759 -6.95728 -6.96676 -6.97623 -6.98571 -6.99493 -7.00552 -7.01586 -7.0262 -7.03653 -7.04655 -7.05797 -7.0691 -7.08023 -7.09136 -7.10209 -7.11427 -7.12612 -7.13798 -7.14983 -7.16122 -7.17408 -7.1866 -7.19912 -7.21165 -7.22367 -7.23709 -7.25023 -7.26337 -7.2765 -7.28914 -7.30303 -7.31672 -7.3304 -7.34409 -7.35733 -7.37157 -7.38574 -7.39991 -7.41408 -7.42792 -7.44239 -7.45699 -7.47159 -7.48619 -7.50063 -7.51524 -7.53021 -7.54519 -7.56016 -7.5752 -7.58986 -7.60516 -7.62047 -7.63578 -7.65142 -7.66605 -7.68164 -7.69724 -7.71283 -7.72907 -7.74362 -7.75946 -7.77531 -7.79115 -7.80796 -7.8224 -7.83845 -7.85451 -7.87056 -7.88791 -7.90222 -7.91846 -7.93469 -7.95093 -7.96876 -7.98297 -7.99936 -8.01575 -8.03214 -8.0504 -8.06452 -8.08104 -8.09757 -8.11409 -8.13271 -8.14679 -8.16343 -8.18008 -8.19672 -8.21561 -8.22972 -8.24646 -8.26321 -8.27996 -8.29905 -8.31324 -8.33009 -8.34693 -8.36378 -8.38298 -8.39734 -8.41428 -8.43122 -8.44816 -8.4674 -8.48198 -8.49902 -8.51605 -8.53309 -8.5523 -8.56717 -8.5843 -8.60144 -8.61857 -8.63769 -8.6529 -8.67014 -8.68738 -8.70462 -8.72361 -8.73917 -8.75653 -8.77389 -8.79125 -8.81011 -8.82602 -8.84351 -8.86101 -8.87851 -8.89729 -8.91357 -8.93124 -8.94892 -8.96659 -8.98535 -9.00211 -9.02002 -9.03792 -9.05582 -9.07457 -9.09192 -9.11005 -9.12818 -9.14632 -9.16495 -9.18289 -9.20121 -9.21953 -9.23785 -9.25633 -9.27476 -9.29327 -9.31178 -9.33029 -9.34869 -9.36756 -9.38632 -9.40508 -9.42385 -9.44232 -9.46163 -9.48071 -9.49979 -9.51887 -9.53754 -9.55728 -9.57672 -9.59616 -9.6156 -9.63455 -9.6547 -9.67451 -9.69432 -9.71414 -9.73344 -9.75399 -9.7742 -9.79441 -9.81463 -9.83434 -9.8553 -9.87594 -9.89658 -9.91723 -9.93742 -9.95881 -9.97993 -10.001 -10.0222 -10.0429 -10.0648 -10.0864 -10.108 -10.1297 -10.151 -10.1734 -10.1955 -10.2177 -10.2399 -10.2619 -10.2847 -10.3075 -10.3303 -10.353 -10.3756 -10.399 -10.4223 -10.4456 -10.469 -10.4922 -10.5132 -10.5342 -10.5552 -10.5762 -10.5933 -10.597 -10.6007 -10.6044 -10.6081 -10.6118 -10.6362 -10.6607 -10.6852 -10.7097 -10.7343 -10.7594 -10.7845 -10.8095 -10.8346 -10.8597 -10.8855 -10.9112 -10.9368 -10.9624 -10.9881 -11.0146 -11.0407 -11.0669 -11.093 -11.1192 -11.1463 -11.1729 -11.1995 -11.2261 -11.2526 -11.2804 -11.3073 -11.3343 -11.3613 -11.3879 -11.4164 -11.4436 -11.4708 -11.498 -11.5246 -11.5536 -11.5812 -11.6085 -11.6356 -11.662 -11.6912 -11.7193 -11.7466 -11.7732 -11.7994 -11.8286 -11.8572 -11.8842 -11.91 -11.9356 -11.9646 -11.9937 -12.02 -12.0447 -12.0695 -12.098 -12.1267 -12.1526 -12.1761 -12.1996 -12.2274 -12.2553 -12.2805 -12.3025 -12.3245 -12.3512 -12.3778 -12.4016 -12.4222 -12.4422 -12.4675 -12.4913 -12.5132 -12.5334 -12.551 -12.5744 -12.5944 -12.6138 -12.6333 -12.6487 -12.6683 -12.6848 -12.7013 -12.7179 -12.733 -12.7402 -12.7463 -12.7523 -12.7584 -12.764 -12.7714 -12.7789 -12.7865 -12.794 -12.8001 -12.8119 -12.8218 -12.8317 -12.8416 -12.8468 -12.8581 -12.8644 -12.8699 -12.8724 -12.8718 -12.8785 -12.8853 -12.8848 -12.8784 -12.872 -12.8735 -12.8751 -12.8702 -12.8573 -12.8445 -12.84 -12.8306 -12.8178 -12.8052 -12.7859 -12.7762 -12.7609 -12.7457 -12.7306 -12.7174 -12.7125 -12.7077 -12.7028 -12.698 -12.6915 -12.6674 -12.641 -12.6149 -12.5876 -12.5544 -12.5256 -12.4964 -12.4602 -12.4173 -12.3745 -12.3363 -12.2967 -12.25 -12.2013 -12.148 -12.1152 -12.0767 -12.0375 -11.9985 -11.9638 -11.9451 -11.9265 -11.9078 -11.8891 -11.8677 -11.8047 -11.7377 -11.6709 -11.6003 -11.5248 -11.452 -11.3793 -11.2992 -11.2107 -11.122 -11.0393 -10.9492 -10.857 -10.7651 -10.687 -10.6808 -10.6745 -10.6683 -10.6618 -10.6547 -10.55 -10.4442 -10.3388 -10.2289 -10.11 -9.99687 -9.88414 -9.76138 -9.62733 -9.49278 -9.40985 -9.32144 -9.22925 -9.13721 -9.05413 -9.00371 -8.95336 -8.90307 -8.85039 -8.79426 -8.64812 -8.49676 -8.34403 -8.17581 -8.00635 -7.84597 -7.67834 -7.5026 -7.32729 -7.17687 -7.16865 -7.16043 -7.15221 -7.14352 -7.13445 -6.94599 -6.75678 -6.5682 -6.36863 -6.16119 -5.96 -5.75412 -5.53651 -5.31946 -5.1001 -5.10006 -5.10003 -5.09998 -5.09994 -5.0999 -4.87205 -4.64495 -4.41863 -4.18035 -3.93371 -3.7277 -3.51903 -3.29962 -3.08076 -2.88892 -2.84781 -2.80672 -2.76566 -2.72235 -2.67837 -2.41742 -2.15434 -1.89024 -1.61663 -1.33805 -1.20196 -1.06608 -0.929747 -0.793684 -0.667833 -0.527446 -0.387379 -0.24764 -0.110779 0.0275477 0.299441 0.569996 0.815246 1.05848 1.29918 1.30095 1.30271 1.30446 1.30603 1.3076 1.53809 1.76723 1.99335 2.18254 2.37598 2.45443 2.53271 2.59806 2.66178 2.72329 2.83144 2.93933 3.04592 3.13866 3.23222 3.35469 3.47681 3.58943 3.7008 3.80814 3.8429 3.87765 3.91239 3.94835 3.98455 4.13476 4.28427 4.43541 4.59308 4.75149 4.81268 4.87422 4.93916 5.00409 5.0687 5.15957 5.25043 5.34129 5.43398 5.52692 5.68098 5.83499 5.98971 6.14449 6.29836 6.30498 6.3116 6.31815 6.3247 6.33125 6.4779 6.6246 6.77135 6.91522 7.05853 7.15292 7.2471 7.3385 7.42995 7.52221 7.57535 7.6285 7.68166 7.73311 7.78428 7.9262 8.06822 8.20646 8.33989 8.47251 8.50677 8.54089 8.5735 8.60613 8.63902 8.73709 8.83524 8.93345 9.02717 9.11972 9.23229 9.34429 9.45091 9.55766 9.669 9.6797 9.6904 9.7011 9.71127 9.72135 9.83711 9.9515 10.0659 10.1736 10.28 10.3471 10.4137 10.4768 10.5401 10.606 10.6445 10.6831 10.7216 10.7582 10.7942 10.8929 10.9918 11.0865 11.1771 11.2664 11.3088 11.3505 11.3902 11.4299 11.4714 11.5179 11.5644 11.6109 11.6553 11.6985 11.7811 11.8637 11.9429 12.0184 12.0927 12.1296 12.1655 12.2 12.2345 12.271 12.308 12.3449 12.3818 12.4174 12.4517 12.5201 12.5885 12.6539 12.7163 12.7778 12.8266 12.8739 12.9197 12.9655 13.0167 13.0282 13.0398 13.0514 13.0627 13.0735 13.1291 13.1838 13.2385 13.291 13.3416 13.3924 13.4432 13.491 13.5381 13.5839 13.6109 13.6366 13.662 13.6873 13.7152 13.7331 13.7509 13.7687 13.7863 13.803 13.8442 13.8846 13.9249 13.9637 14.0013 14.0387 14.0761 14.1119 14.1463 14.1804 14.2143 14.2468 14.2788 14.3108 14.3423 14.3501 14.3575 14.365 14.3724 14.3801 14.4022 14.4243 14.4463 14.4684 14.4893 14.5169 14.5439 14.5709 14.5972 14.6228 14.6479 14.6729 14.6973 14.7207 14.744 14.7669 14.7897 14.8115 14.8331 14.8545 14.8755 14.8957 14.9157 14.9357 14.9555 14.9679 14.98 14.992 15.0041 15.0176 15.0237 15.0299 15.036 15.0421 15.0481 15.0653 15.0825 15.0997 15.1168 15.1334 15.1494 15.1653 15.1812 15.1968 15.2121 15.2269 15.2416 15.2564 15.2706 15.2848 15.2985 15.3123 15.3258 15.339 15.3522 15.365 15.3778 15.3902 15.4026 15.4149 15.4269 15.4387 15.4503 15.4618 15.4734 15.4846 15.4955 15.5064 15.5172 15.5281 15.5386 15.5488 15.559 15.5692 15.5794 15.5891 15.5988 15.6084 15.618 15.6276 15.6314 15.6352 15.6389 15.6427 15.6467 15.652 15.6573 15.6626 15.6678 15.6731 15.6817 15.6903 15.6989 15.7075 15.7161 15.7242 15.7323 15.7405 15.7486 15.7567 15.7643 15.7721 15.7798 15.7875 15.7952 15.8024 15.8097 15.817 15.8244 15.8316 15.8385 15.8454 15.8523 15.8593 15.8662 15.8727 15.8792 15.8859 15.8925 15.899 15.9052 15.9114 15.9177 15.924 15.9302 15.9361 15.942 15.9479 15.9539 15.9599 15.9654 15.971 15.9767 15.9823 15.988 15.9933 15.9987 16.004 16.0094 16.0148 16.0198 16.0249 16.0299 16.035 16.0402 16.045 16.0498 16.0545 16.0594 16.0643 16.0688 16.0734 16.0779 16.0825 16.0871 16.0914 16.0957 16.1 16.1043 16.1087 16.1128 16.1169 16.1209 16.125 16.1291 16.133 16.1368 16.1407 16.1445 16.1484 16.1521 16.1557 16.1593 16.1629 16.1666 16.17 16.1734 16.1768 16.1802 16.1837 16.1869 16.1901 16.1933 16.1965 16.1997 16.2027 16.2057 16.2087 16.2117 16.2147 16.2175 16.2203 16.2231 16.2259 16.2287 16.2313 16.2339 16.2365 16.2391 16.2417 16.2441 16.2465 16.249 16.2514 16.2538 16.256 16.2583 16.2605 16.2628 16.265 16.2671 16.2692 16.2712 16.2733 16.2754 16.2755 16.2755 16.2756 16.2757 16.2757 16.2776 16.2795 16.2814 16.2833 16.2852 16.287 16.2889 16.2907 16.2926 16.2944 16.2962 16.298 16.2998 16.3016 16.3034 16.3051 16.3069 16.3087 16.3105 16.3124 16.3142 16.3161 16.318 16.3199 16.3219 16.324 16.3261 16.3282 16.3304 16.3326 16.3351 16.3376 16.3402 16.3427 16.3455 16.3486 16.3519 16.3551 16.3584 16.362 16.3662 16.3703 16.3745 16.3787 16.3834 16.3891 16.3951 16.4011 16.407 16.4141 16.421 16.4258 16.4305 16.4353 16.4398 16.4482 16.4594 16.4705 16.4816 16.495 16.5005 16.5016 16.5024 16.5029 16.4866 16.458 16.4269 16.3958 16.3638 16.3248 16.2834 16.2442 16.2062 16.1682 16.1304 16.0908 16.0513 16.0123 15.9729 15.9333 15.8919 15.8504 15.808 15.7645 15.7209 15.6752 15.6294 15.5828 15.5352 15.4876 15.4376 15.3877 15.3367 15.2849 15.233 15.1786 15.1242 15.0685 15.0117 14.9549 14.8954 14.8356 14.7746 14.7125 14.65 14.5847 14.5185 14.4514 14.3835 14.3146 14.2426 14.1693 14.0952 14.0208 13.9447 13.8653 13.7838 13.702 13.6202 13.5361 13.4481 13.3576 13.267 13.1765 13.084 12.9859 12.8856 12.7853 12.685 12.583 12.4735 12.3622 12.2509 12.1396 12.0271 11.9046 11.781 11.6573 11.5336 11.4095 11.334 11.2581 11.1822 11.1063 11.0178 10.9587 10.8996 10.8404 10.7813 10.7217 10.5691 10.4161 10.263 10.1099 9.95542 9.78585 9.61442 9.44297 9.27151 9.09717 8.90864 8.71739 8.52612 8.33483 8.14004 7.9296 7.71139 7.49316 7.2749 7.04759 6.80828 6.56995 6.33161 6.09328 5.85594 5.60122 5.30235 5.00338 4.7043 4.35685 3.99725 3.73267 3.46749 3.20174 3.03585 2.86392 2.32774 1.75373 1.0398 0