# vtk DataFile Version 2.0
track0
ASCII
DATASET POLYDATA
POINTS 11945 float
-0.0205 0.001 1e-05
-0.0202034 0.0010001 1e-05
-0.0199069 0.00100036 1e-05
-0.0196103 0.00100072 1e-05
-0.0193137 0.0010012 1e-05
-0.0190172 0.00100179 1e-05
-0.0187132 0.00100303 1e-05
-0.0184093 0.00100346 1e-05
-0.0181054 0.00100387 1e-05
-0.0178015 0.00100425 1e-05
-0.0174976 0.0010046 1e-05
-0.0172058 0.00100552 1e-05
-0.016914 0.00100576 1e-05
-0.0166222 0.00100601 1e-05
-0.0163305 0.00100628 1e-05
-0.0160387 0.00100656 1e-05
-0.0157586 0.00100736 1e-05
-0.0154784 0.0010077 1e-05
-0.0151983 0.00100808 1e-05
-0.0149182 0.00100851 1e-05
-0.0146381 0.00100898 1e-05
-0.0143692 0.00100988 1e-05
-0.0141002 0.00101044 1e-05
-0.0138313 0.00101105 1e-05
-0.0135624 0.0010117 1e-05
-0.0132934 0.0010124 1e-05
-0.0130353 0.00101338 1e-05
-0.0127771 0.00101414 1e-05
-0.0125189 0.00101494 1e-05
-0.0122607 0.00101577 1e-05
-0.0120025 0.00101664 1e-05
-0.0117547 0.00101768 1e-05
-0.0115068 0.00101859 1e-05
-0.0112589 0.00101952 1e-05
-0.0110111 0.00102048 1e-05
-0.0107632 0.00102147 1e-05
-0.0105252 0.00102255 1e-05
-0.0102873 0.00102355 1e-05
-0.0100493 0.00102457 1e-05
-0.00981133 0.00102561 1e-05
-0.00957337 0.00102667 1e-05
-0.00934491 0.00102777 1e-05
-0.00911645 0.00102882 1e-05
-0.00888799 0.00102989 1e-05
-0.00865954 0.00103098 1e-05
-0.00843108 0.00103208 1e-05
-0.00821175 0.00103318 1e-05
-0.00799242 0.00103427 1e-05
-0.00777309 0.00103536 1e-05
-0.00755376 0.00103647 1e-05
-0.00733443 0.00103759 1e-05
-0.00723129 0.00103812 1e-05
-0.00712815 0.00103865 1e-05
-0.00702501 0.00103919 1e-05
-0.00692187 0.00103972 1e-05
-0.00682001 0.00104025 1e-05
-0.00671233 0.00104082 1e-05
-0.00660465 0.00104138 1e-05
-0.00649696 0.00104195 1e-05
-0.00638928 0.00104252 1e-05
-0.0062816 0.00104309 1e-05
-0.00607944 0.00104417 1e-05
-0.00587729 0.00104525 1e-05
-0.00567514 0.00104634 1e-05
-0.00547298 0.00104743 1e-05
-0.00527083 0.00104853 1e-05
-0.00507675 0.00104958 1e-05
-0.00488267 0.00105064 1e-05
-0.0046886 0.00105171 1e-05
-0.00449452 0.00105278 1e-05
-0.00430044 0.00105386 1e-05
-0.00411412 0.00105489 1e-05
-0.0039278 0.00105593 1e-05
-0.00374147 0.00105697 1e-05
-0.00355515 0.00105801 1e-05
-0.00336883 0.00105906 1e-05
-0.00318995 0.00106006 1e-05
-0.00301107 0.00106108 1e-05
-0.00283219 0.00106209 1e-05
-0.00265331 0.00106311 1e-05
-0.00247443 0.00106414 1e-05
-0.0023027 0.00106511 1e-05
-0.00213097 0.0010661 1e-05
-0.00195924 0.0010671 1e-05
-0.00178751 0.00106809 1e-05
-0.00161577 0.00106909 1e-05
-0.0014509 0.00107005 1e-05
-0.00128603 0.00107101 1e-05
-0.00112116 0.00107198 1e-05
-0.00095629 0.00107295 1e-05
-0.000791418 0.00107392 1e-05
-0.000633135 0.00107484 1e-05
-0.000474851 0.00107576 1e-05
-0.000316567 0.00107667 1e-05
-0.000158284 0.00107758 1e-05
0 0.00107847 1e-05
0.000105677 0.00107906 1e-05
0.000211355 0.00107964 1e-05
0.000317032 0.00108022 1e-05
0.00042271 0.00108079 1e-05
0.000528387 0.00108135 1e-05
0.000634886 0.0010819 1e-05
0.000741385 0.00108246 1e-05
0.000847884 0.00108301 1e-05
0.000954384 0.00108355 1e-05
0.00106088 0.00108409 1e-05
0.00116821 0.00108462 1e-05
0.00127554 0.00108516 1e-05
0.00138286 0.0010857 1e-05
0.00149019 0.00108623 1e-05
0.00159752 0.00108676 1e-05
0.00170568 0.00108728 1e-05
0.00181384 0.00108782 1e-05
0.001922 0.00108835 1e-05
0.00203016 0.00108889 1e-05
0.00213833 0.00108942 1e-05
0.00224733 0.00108995 1e-05
0.00235633 0.00109049 1e-05
0.00246533 0.00109104 1e-05
0.00257433 0.00109159 1e-05
0.00268334 0.00109215 1e-05
0.00279319 0.00109269 1e-05
0.00290304 0.00109326 1e-05
0.00301289 0.00109384 1e-05
0.00312274 0.00109443 1e-05
0.00323259 0.00109502 1e-05
0.00334329 0.0010956 1e-05
0.00345399 0.00109621 1e-05
0.0035647 0.00109683 1e-05
0.0036754 0.00109746 1e-05
0.00378611 0.0010981 1e-05
0.00389767 0.00109874 1e-05
0.00400924 0.0010994 1e-05
0.0041208 0.00110007 1e-05
0.00423236 0.00110075 1e-05
0.00434393 0.00110144 1e-05
0.00445636 0.00110213 1e-05
0.00456879 0.00110285 1e-05
0.00468123 0.00110358 1e-05
0.00479366 0.00110432 1e-05
0.00490609 0.00110507 1e-05
0.0050194 0.00110582 1e-05
0.0051327 0.0011066 1e-05
0.00524601 0.00110738 1e-05
0.00535931 0.00110818 1e-05
0.00547262 0.00110899 1e-05
0.00558681 0.00110981 1e-05
0.005701 0.00111065 1e-05
0.00581518 0.00111149 1e-05
0.00592937 0.00111235 1e-05
0.00604356 0.00111322 1e-05
0.00615863 0.0011141 1e-05
0.00627371 0.001115 1e-05
0.00638878 0.00111591 1e-05
0.00650386 0.00111683 1e-05
0.00661893 0.00111777 1e-05
0.0067349 0.00111871 1e-05
0.00685087 0.00111967 1e-05
0.00696684 0.00112064 1e-05
0.00708281 0.00112162 1e-05
0.00719878 0.00112261 1e-05
0.00731565 0.00112361 1e-05
0.00743252 0.00112463 1e-05
0.00754939 0.00112566 1e-05
0.00766626 0.0011267 1e-05
0.00778313 0.00112775 1e-05
0.00790091 0.00112881 1e-05
0.00801869 0.00112989 1e-05
0.00813647 0.00113097 1e-05
0.00825425 0.00113207 1e-05
0.00837203 0.00113317 1e-05
0.00849073 0.00113429 1e-05
0.00860942 0.00113542 1e-05
0.00872812 0.00113656 1e-05
0.00884681 0.00113771 1e-05
0.00896551 0.00113887 1e-05
0.00908513 0.00114004 1e-05
0.00920475 0.00114122 1e-05
0.00932437 0.00114241 1e-05
0.00944398 0.00114361 1e-05
0.0095636 0.00114482 1e-05
0.00968415 0.00114604 1e-05
0.0098047 0.00114727 1e-05
0.00992525 0.00114851 1e-05
0.0100458 0.00114976 1e-05
0.0101663 0.00115101 1e-05
0.0102878 0.00115227 1e-05
0.0104093 0.00115355 1e-05
0.0105308 0.00115484 1e-05
0.0106523 0.00115613 1e-05
0.0107738 0.00115743 1e-05
0.0108962 0.00115873 1e-05
0.0110186 0.00116005 1e-05
0.0111411 0.00116138 1e-05
0.0112635 0.00116271 1e-05
0.0113859 0.00116404 1e-05
0.0115093 0.00116538 1e-05
0.0116327 0.00116674 1e-05
0.0117561 0.00116811 1e-05
0.0118794 0.00116948 1e-05
0.0120028 0.00117085 1e-05
0.0121272 0.00117222 1e-05
0.0122515 0.00117362 1e-05
0.0123759 0.00117501 1e-05
0.0125002 0.00117642 1e-05
0.0126245 0.00117782 1e-05
0.0127498 0.00117922 1e-05
0.0128752 0.00118065 1e-05
0.0130005 0.00118208 1e-05
0.0131258 0.00118351 1e-05
0.0132511 0.00118494 1e-05
0.0133774 0.00118637 1e-05
0.0135036 0.00118782 1e-05
0.0136299 0.00118927 1e-05
0.0137562 0.00119072 1e-05
0.0138825 0.00119218 1e-05
0.0140098 0.00119363 1e-05
0.014137 0.0011951 1e-05
0.0142643 0.00119657 1e-05
0.0143915 0.00119805 1e-05
0.0145188 0.00119952 1e-05
0.0146471 0.00120099 1e-05
0.0147753 0.00120248 1e-05
0.0149036 0.00120397 1e-05
0.0150318 0.00120545 1e-05
0.0151601 0.00120694 1e-05
0.0152893 0.00120842 1e-05
0.0154186 0.00120992 1e-05
0.0155478 0.00121143 1e-05
0.0156771 0.00121293 1e-05
0.0158063 0.00121443 1e-05
0.0159366 0.00121591 1e-05
0.0160668 0.00121742 1e-05
0.0161971 0.00121893 1e-05
0.0163273 0.00122044 1e-05
0.0164576 0.00122194 1e-05
0.0165889 0.00122343 1e-05
0.0167201 0.00122495 1e-05
0.0168514 0.00122646 1e-05
0.0169827 0.00122797 1e-05
0.0171139 0.00122948 1e-05
0.0172462 0.00123097 1e-05
0.0173785 0.00123248 1e-05
0.0175108 0.00123399 1e-05
0.0176431 0.0012355 1e-05
0.0177754 0.001237 1e-05
0.0179087 0.00123849 1e-05
0.018042 0.00124 1e-05
0.0181753 0.0012415 1e-05
0.0183087 0.00124301 1e-05
0.018442 0.0012445 1e-05
0.0185763 0.00124598 1e-05
0.0187107 0.00124748 1e-05
0.018845 0.00124898 1e-05
0.0189794 0.00125047 1e-05
0.0191137 0.00125196 1e-05
0.0192491 0.00125343 1e-05
0.0193845 0.00125492 1e-05
0.0195199 0.0012564 1e-05
0.0196553 0.00125788 1e-05
0.0197907 0.00125935 1e-05
0.0199272 0.00126081 1e-05
0.0200636 0.00126228 1e-05
0.0202001 0.00126375 1e-05
0.0203365 0.00126521 1e-05
0.020473 0.00126667 1e-05
0.0206105 0.0012681 1e-05
0.020748 0.00126956 1e-05
0.0208855 0.001271 1e-05
0.021023 0.00127244 1e-05
0.0211606 0.00127388 1e-05
0.0212991 0.0012753 1e-05
0.0214377 0.00127673 1e-05
0.0215763 0.00127815 1e-05
0.0217149 0.00127957 1e-05
0.0218535 0.00128098 1e-05
0.0219931 0.00128237 1e-05
0.0221328 0.00128377 1e-05
0.0222724 0.00128517 1e-05
0.0224121 0.00128656 1e-05
0.0225517 0.00128794 1e-05
0.0226925 0.00128931 1e-05
0.0228332 0.00129068 1e-05
0.022974 0.00129205 1e-05
0.0231147 0.00129341 1e-05
0.0232555 0.00129476 1e-05
0.0233973 0.0012961 1e-05
0.0235391 0.00129744 1e-05
0.023681 0.00129877 1e-05
0.0238228 0.00130009 1e-05
0.0239647 0.00130141 1e-05
0.0241076 0.00130271 1e-05
0.0242505 0.00130402 1e-05
0.0243935 0.00130531 1e-05
0.0245364 0.00130659 1e-05
0.0246794 0.00130787 1e-05
0.0248234 0.00130914 1e-05
0.0249675 0.0013104 1e-05
0.0251115 0.00131166 1e-05
0.0252556 0.0013129 1e-05
0.0253996 0.00131413 1e-05
0.0255448 0.00131536 1e-05
0.02569 0.00131658 1e-05
0.0258351 0.00131778 1e-05
0.0259803 0.00131898 1e-05
0.0261255 0.00132016 1e-05
0.0262718 0.00132135 1e-05
0.0264181 0.00132251 1e-05
0.0265644 0.00132367 1e-05
0.0267107 0.00132481 1e-05
0.026857 0.00132594 1e-05
0.0270044 0.00132708 1e-05
0.0271519 0.00132819 1e-05
0.0272993 0.00132929 1e-05
0.0274468 0.00133037 1e-05
0.0275942 0.00133145 1e-05
0.0277428 0.00133252 1e-05
0.0278914 0.00133358 1e-05
0.0280399 0.00133461 1e-05
0.0281885 0.00133564 1e-05
0.0283371 0.00133665 1e-05
0.0284869 0.00133766 1e-05
0.0286366 0.00133865 1e-05
0.0287863 0.00133962 1e-05
0.0289361 0.00134058 1e-05
0.0290858 0.00134152 1e-05
0.0292367 0.00134247 1e-05
0.0293876 0.00134338 1e-05
0.0295385 0.00134428 1e-05
0.0296894 0.00134517 1e-05
0.0298403 0.00134604 1e-05
0.0299924 0.00134691 1e-05
0.0301445 0.00134775 1e-05
0.0302966 0.00134857 1e-05
0.0304486 0.00134938 1e-05
0.0306007 0.00135017 1e-05
0.030754 0.00135096 1e-05
0.0309072 0.00135172 1e-05
0.0310605 0.00135246 1e-05
0.0312138 0.00135318 1e-05
0.031367 0.00135389 1e-05
0.0315215 0.00135459 1e-05
0.0316759 0.00135526 1e-05
0.0318304 0.00135591 1e-05
0.0319848 0.00135654 1e-05
0.0321393 0.00135715 1e-05
0.0322949 0.00135776 1e-05
0.0324506 0.00135833 1e-05
0.0326062 0.00135888 1e-05
0.0327619 0.00135941 1e-05
0.0329175 0.00135992 1e-05
0.0330744 0.00136042 1e-05
0.0332313 0.00136089 1e-05
0.0333881 0.00136133 1e-05
0.033545 0.00136175 1e-05
0.0337019 0.00136215 1e-05
0.0338599 0.00136253 1e-05
0.034018 0.00136288 1e-05
0.0341761 0.00136321 1e-05
0.0343342 0.0013635 1e-05
0.0344923 0.00136378 1e-05
[...]
POINT_DATA 11945
 FIELD attributes 1
U 3 11945 float
9.9991 	0.00339171 	0 9.99876 	0.00860485 	0 9.99911 	0.0123892 	0 9.99946 	0.0161638 	0 9.99982 	0.0199285 	0 10.0029 	0.0408013 	0 10.0032 	0.0142018 	0 10.006 	0.0133566 	0 10.0088 	0.0125078 	0 10.0115 	0.0116554 	0 10.0148 	0.0314141 	0 10.0172 	0.00816824 	0 10.0197 	0.00866594 	0 10.0222 	0.00916699 	0 10.0247 	0.00967141 	0 10.0248 	0.0288404 	0 10.0279 	0.0119863 	0 10.0292 	0.0136615 	0 10.0305 	0.0153475 	0 10.0318 	0.0170443 	0 10.0291 	0.0332286 	0 10.0334 	0.0210615 	0 10.0342 	0.0226964 	0 10.0349 	0.0243405 	0 10.0356 	0.025994 	0 10.0312 	0.038168 	0 10.0363 	0.0297068 	0 10.0366 	0.0310271 	0 10.0369 	0.0323538 	0 10.0372 	0.0336868 	0 10.0319 	0.0422231 	0 10.037 	0.0367179 	0 10.0369 	0.0377641 	0 10.0369 	0.0388144 	0 10.0368 	0.0398688 	0 10.0312 	0.0455105 	0 10.0359 	0.0422255 	0 10.0356 	0.0430448 	0 10.0352 	0.0438667 	0 10.0348 	0.0446912 	0 10.0298 	0.0481547 	0 10.0335 	0.0464515 	0 10.0329 	0.0470823 	0 10.0323 	0.0477147 	0 10.0317 	0.0483489 	0 10.0279 	0.0502414 	0 10.0301 	0.0496182 	0 10.0294 	0.0500984 	0 10.0286 	0.0505797 	0 10.0278 	0.0510619 	0 10.0259 	0.0518696 	0 10.0265 	0.051765 	0 10.0261 	0.0519435 	0 10.0257 	0.052122 	0 10.0252 	0.0523008 	0 10.0248 	0.0524774 	0 10.0243 	0.0526609 	0 10.0238 	0.0528446 	0 10.0234 	0.0530284 	0 10.0229 	0.0532123 	0 10.0222 	0.0532392 	0 10.0215 	0.0536359 	0 10.0204 	0.0539097 	0 10.0194 	0.0541838 	0 10.0183 	0.0544583 	0 10.0167 	0.0543458 	0 10.0164 	0.0548692 	0 10.0153 	0.0550863 	0 10.0141 	0.0553037 	0 10.013 	0.0555212 	0 10.0107 	0.0552001 	0 10.011 	0.0558202 	0 10.0098 	0.0560101 	0 10.0086 	0.0562001 	0 10.0074 	0.0563903 	0 10.0044 	0.0559485 	0 10.0054 	0.0566571 	0 10.0042 	0.0568587 	0 10.0029 	0.0570605 	0 10.0016 	0.0572624 	0 9.99786 	0.0567793 	0 9.99984 	0.0575717 	0 9.99864 	0.0578159 	0 9.99743 	0.0580603 	0 9.99623 	0.0583049 	0 9.99171 	0.0578297 	0 9.9948 	0.0585292 	0 9.99373 	0.0586047 	0 9.99267 	0.0586802 	0 9.9916 	0.0587557 	0 9.98627 	0.0580559 	0 9.99072 	0.0582479 	0 9.99007 	0.0576526 	0 9.98943 	0.0570571 	0 9.98878 	0.0564613 	0 9.98282 	0.0551473 	0 9.98802 	0.0553828 	-2.78422e-21 9.98714 	0.0545785 	-7.87066e-21 9.98626 	0.053774 	-1.29576e-20 9.98538 	0.0529691 	-1.80451e-20 9.97892 	0.0514277 	-2.35345e-20 9.9838 	0.052179 	-3.86698e-20 9.98259 	0.051658 	-3.8585e-20 9.98139 	0.0511367 	-3.84983e-20 9.98018 	0.0506152 	-3.84095e-20 9.97346 	0.0490758 	-2.19417e-20 9.97816 	0.0503025 	-2.30212e-20 9.97681 	0.0499813 	-2.60713e-20 9.97547 	0.0496598 	-2.9122e-20 9.97413 	0.0493381 	-3.21732e-20 9.96733 	0.047699 	-3.59229e-20 9.97179 	0.0493633 	-5.01376e-20 9.97028 	0.0493393 	-5.00648e-20 9.96876 	0.0493152 	-4.99919e-20 9.96725 	0.0492911 	-4.9919e-20 9.96036 	0.0477333 	-3.78591e-20 9.96453 	0.049773 	-2.75751e-20 9.96281 	0.0501119 	-1.64845e-20 9.96109 	0.0504512 	-5.39359e-21 9.95937 	0.0507908 	5.6975e-21 9.9524 	0.0494953 	1.69067e-20 9.95632 	0.0517371 	1.03062e-20 9.95442 	0.0523604 	6.37227e-21 9.95253 	0.0529843 	2.4382e-21 9.95065 	0.0536088 	-1.49603e-21 9.94362 	0.0526209 	1.48813e-22 9.94734 	0.0548964 	1.0032e-20 9.94529 	0.0557014 	1.09884e-20 9.94324 	0.056507 	1.19491e-20 9.94119 	0.0573134 	1.29142e-20 9.93406 	0.0566235 	1.48098e-21 9.93765 	0.0588276 	2.88483e-20 9.9354 	0.0597403 	3.26043e-20 9.93316 	0.0606538 	3.63696e-20 9.93092 	0.0615679 	4.01441e-20 9.92357 	0.0611502 	1.59011e-20 9.92707 	0.0632296 	1.51815e-20 9.92458 	0.0641965 	1.10845e-20 9.9221 	0.0651641 	6.98685e-21 9.91962 	0.0661324 	2.88872e-21 9.91192 	0.0659454 	-2.50157e-21 9.91539 	0.0678791 	4.20483e-21 9.9126 	0.0688581 	1.01552e-20 9.90981 	0.0698377 	1.61048e-20 9.90703 	0.0708179 	2.20536e-20 9.89879 	0.0708072 	2.68037e-20 9.90232 	0.0725949 	2.21235e-20 9.89916 	0.0735538 	1.61891e-20 9.896 	0.0745133 	1.02539e-20 9.89285 	0.0754733 	4.31798e-21 9.88386 	0.0755804 	1.86556e-24 9.88756 	0.0772359 	-4.31586e-21 9.88397 	0.0781526 	-1.02578e-20 9.88039 	0.0790698 	-1.61991e-20 9.87681 	0.0799875 	-2.21396e-20 9.86686 	0.0801578 	-2.6853e-20 9.87084 	0.0817034 	-1.78502e-20 9.86678 	0.0825643 	-6.01654e-21 9.86273 	0.0834255 	5.81712e-21 9.85868 	0.0842872 	1.76508e-20 9.84756 	0.0844715 	2.54207e-20 9.85197 	0.085935 	2.97685e-20 9.8474 	0.0867309 	3.47667e-20 9.84284 	0.0875273 	3.9763e-20 9.83828 	0.088324 	4.47574e-20 9.82577 	0.0884765 	5.04415e-20 9.83079 	0.0898867 	5.57117e-20 9.82568 	0.0906113 	4.98794e-20 9.82058 	0.0913364 	4.40497e-20 9.81549 	0.0920619 	3.82226e-20 9.80135 	0.0921397 	2.52175e-20 9.80719 	0.0935251 	1.20851e-20 9.80153 	0.094174 	-2.27935e-21 9.79587 	0.0948234 	-1.66434e-20 9.79023 	0.0954731 	-3.1007e-20 9.77423 	0.0954369 	-4.59228e-20 9.78112 	0.096825 	-7.83888e-20 9.7749 	0.0973952 	-7.87297e-20 9.7687 	0.0979658 	-7.90798e-20 9.7625 	0.0985368 	-7.9439e-20 9.74441 	0.0983512 	-4.62473e-20 9.7526 	0.099768 	-3.46915e-20 9.74584 	0.100258 	-2.52502e-20 9.73908 	0.100748 	-1.58081e-20 9.73234 	0.101239 	-6.36534e-21 9.71192 	0.100873 	0 9.72167 	0.102342 	-3.46391e-21 9.71439 	0.102752 	-8.61228e-21 9.70711 	0.103163 	-1.37603e-20 9.69984 	0.103574 	-1.8908e-20 9.67688 	0.103001 	-2.28149e-20 9.68843 	0.104543 	-3.6672e-20 9.68066 	0.104874 	-3.68167e-20 9.6729 	0.105205 	-3.69631e-20 9.66514 	0.105536 	-3.71114e-20 9.63945 	0.104738 	-2.59888e-20 9.65302 	0.106366 	-1.88875e-20 9.6448 	0.106618 	-1.36729e-20 9.63659 	0.10687 	-8.45811e-21 9.62838 	0.107123 	-3.24304e-21 9.59981 	0.106084 	-3.41619e-21 9.6156 	0.107806 	-6.00739e-21 9.60697 	0.107979 	-1.57021e-20 9.59836 	0.108154 	-2.53965e-20 9.58975 	0.108328 	-3.50904e-20 9.5582 	0.107041 	-5.12233e-20 9.57632 	0.108858 	-9.23752e-20 9.56735 	0.108956 	-9.29566e-20 9.55838 	0.109054 	-9.35411e-20 9.54942 	0.109152 	-9.41288e-20 9.51487 	0.107617 	-5.1751e-20 9.53537 	0.109526 	-3.51248e-20 9.5261 	0.10955 	-2.52539e-20 9.51683 	0.109574 	-1.53828e-20 9.50756 	0.109598 	-5.51146e-21 9.47005 	0.107827 	4.11078e-21 9.4929 	0.109814 	0 9.48339 	0.109768 	0 9.47387 	0.109722 	0 9.46436 	0.109676 	0 9.42401 	0.107685 	-1.15077e-23 9.44909 	0.109734 	5.73731e-21 9.43937 	0.109621 	1.65114e-20 9.42966 	0.109508 	2.72856e-20 9.41994 	0.109395 	3.80597e-20 9.37698 	0.10721 	4.49996e-20 9.40406 	0.109296 	9.20477e-20 9.39419 	0.109121 	1.03276e-19 9.38433 	0.108945 	1.14503e-19 9.37446 	0.108769 	1.2573e-19 9.32918 	0.10642 	9.44249e-20 9.35796 	0.108515 	1.26502e-19 9.34799 	0.108282 	1.15949e-19 9.33801 	0.108049 	1.05395e-19 9.32803 	0.107815 	9.48402e-20 9.28083 	0.10534 	4.45683e-20 9.31092 	0.10741 	3.57415e-20 9.30088 	0.107125 	2.00133e-20 9.29084 	0.106839 	4.28516e-21 9.28079 	0.106553 	-1.14428e-20 9.23212 	0.103993 	-2.18944e-20 9.26307 	0.106004 	-6.82113e-20 9.25301 	0.105671 	-6.86554e-20 9.24294 	0.105338 	-6.90968e-20 9.23286 	0.105005 	-6.95355e-20 9.18322 	0.102405 	-1.63979e-20 9.21455 	0.10432 	-1.64312e-20 9.20449 	0.103945 	-1.16028e-20 9.19442 	0.10357 	-6.77455e-21 9.18435 	0.103195 	-1.94653e-21 9.1343 	0.1006 	-9.07113e-24 9.16549 	0.10238 	0 9.15547 	0.101968 	0 9.14544 	0.101556 	0 9.1354 	0.101144 	0 9.08548 	0.0985972 	-6.15073e-21 9.11603 	0.100208 	0 9.10608 	0.0997634 	0 9.09611 	0.0993179 	0 9.08613 	0.0988719 	0 9.03691 	0.0964153 	-6.38929e-21 9.06633 	0.0978246 	2.76682e-21 9.05646 	0.0973499 	1.04107e-20 9.04658 	0.0968745 	1.8055e-20 9.03668 	0.0963985 	2.56998e-20 8.98867 	0.0940686 	2.58526e-20 9.01653 	0.095248 	-3.37896e-20 9.00677 	0.0947459 	-4.05779e-20 8.997 	0.0942432 	-4.73598e-20 8.98721 	0.0937397 	-5.41352e-20 8.94087 	0.0915677 	4.5301e-21 8.96679 	0.0924947 	2.05095e-21 8.95716 	0.0919671 	-5.54037e-21 8.94751 	0.0914388 	-1.3132e-20 8.93785 	0.0909097 	-2.07241e-20 8.8936 	0.0889201 	-2.74773e-20 8.91726 	0.0895784 	-1.74841e-20 8.90778 	0.0890262 	3.08234e-22 8.89828 	0.0884732 	1.8101e-20 8.88876 	0.0879195 	3.58941e-20 8.84692 	0.0861295 	5.01739e-20 8.86811 	0.0865095 	1.09265e-19 8.85879 	0.0859328 	1.22134e-19 8.84945 	0.0853552 	1.34998e-19 8.8401 	0.0847769 	1.47858e-19 8.80091 	0.0831958 	9.74117e-20 8.81947 	0.0832946 	7.98496e-20 8.81033 	0.0826923 	5.6762e-20 8.80116 	0.0820892 	3.36766e-20 8.79197 	0.0814852 	1.05935e-20 8.75561 	0.0801141 	-3.43145e-21 8.77148 	0.0799347 	-6.54879e-20 8.76251 	0.0793036 	-7.83448e-20 8.75352 	0.0786717 	-9.11941e-20 8.74451 	0.0780389 	-1.04036e-19 8.71103 	0.0768699 	-5.0518e-20 8.72421 	0.0764197 	-3.48024e-20 8.71543 	0.0757546 	-1.16201e-20 8.70662 	0.0750885 	1.15622e-20 8.69779 	0.0744216 	3.47445e-20 8.6672 	0.0734389 	5.0478e-20 8.67771 	0.0727268 	1.03243e-19 8.66912 	0.0720223 	8.63852e-20 8.66051 	0.071317 	6.95184e-20 8.65187 	0.0706108 	5.2642e-20 8.62415 	0.0697968 	-2.36389e-20 8.63205 	0.068836 	-1.55946e-19 8.62366 	0.0680897 	-1.67718e-19 8.61524 	0.0673425 	-1.79471e-19 8.6068 	0.0665943 	-1.91204e-19 8.58191 	0.0659295 	-7.49586e-20 8.58733 	0.0647376 	-5.84951e-20 8.57916 	0.0639511 	-4.86583e-20 8.57096 	0.0631637 	-3.88247e-20 8.56274 	0.0623753 	-2.89941e-20 8.54059 	0.0618408 	-2.28778e-20 8.54382 	0.060444 	3.97682e-20 8.53589 	0.0596208 	3.96658e-20 8.52794 	0.0587965 	3.95486e-20 8.51995 	0.0579713 	3.94164e-20 8.50032 	0.0575435 	-2.27867e-20 8.50162 	0.0559742 	-1.8186e-20 8.49394 	0.0551144 	6.98309e-21 8.48622 	0.0542537 	3.21537e-20 8.47847 	0.053392 	5.7326e-20 8.46109 	0.0530413 	7.10668e-20 8.46074 	0.0513352 	1.2852e-19 8.45329 	0.0504348 	1.27615e-19 8.4458 	0.0495334 	1.267e-19 8.43829 	0.0486311 	1.25777e-19 8.42289 	0.0483202 	7.61459e-20 8.42115 	0.0465106 	1.18995e-19 8.41393 	0.045562 	1.00717e-19 8.40668 	0.0446124 	8.24265e-20 8.39939 	0.0436619 	6.41229e-20 8.38573 	0.0433489 	-9.36529e-21 8.38286 	0.0414625 	-2.70321e-21 8.37587 	0.0404568 	-2.70201e-21 8.36884 	0.03945 	-2.70106e-21 8.36177 	0.0384423 	-2.70037e-21 8.34961 	0.0380868 	3.96637e-21 8.34585 	0.0361447 	5.37864e-20 8.33907 	0.0350737 	5.32962e-20 8.33226 	0.0340016 	5.27874e-20 8.32541 	0.0329285 	5.22601e-20 8.31454 	0.0324957 	1.64992e-20 8.31007 	0.0305154 	2.86519e-21 8.30351 	0.0293718 	1.51974e-20 8.2969 	0.0282271 	2.7532e-20 8.29026 	0.0270815 	3.98689e-20 8.28049 	0.0265418 	6.39742e-20 8.2755 	0.0245376 	1.03583e-19 8.26915 	0.0233144 	1.20992e-19 8.26274 	0.0220902 	1.38389e-19 8.2563 	0.020865 	1.55774e-19 8.24747 	0.0201934 	1.4434e-19 8.24212 	0.0181749 	1.55008e-19 8.23596 	0.0168647 	1.37321e-19 8.22975 	0.0155535 	1.19621e-19 8.2235 	0.0142412 	1.01908e-19 8.21547 	0.0134156 	4.12928e-20 8.2099 	0.0113873 	-6.46202e-21 8.20394 	0.00998088 	-3.49827e-20 8.19792 	0.00857343 	-6.34795e-20 8.19186 	0.00716493 	-9.19524e-20 8.18452 	0.00616593 	-1.01188e-19 8.17884 	0.00412638 	-1.04467e-19 8.17307 	0.00261284 	-9.81032e-20 8.16725 	0.00109824 	-9.17206e-20 8.16138 	-0.000417436 	-8.53191e-20 8.15462 	-0.00160708 	-6.1715e-20 8.14895 	-0.00366343 	-4.29535e-20 8.14338 	-0.00529598 	-3.14793e-20 8.13775 	-0.0069296 	-2.00088e-20 8.13206 	-0.00856429 	-8.5421e-21 8.12581 	-0.00995912 	-5.49179e-21 8.12025 	-0.0120404 	-8.75277e-21 8.11487 	-0.0138041 	-2.03773e-20 8.10944 	-0.0155689 	-3.20057e-20 8.10394 	-0.0173348 	-4.36382e-20 8.09811 	-0.0189471 	-5.91628e-20 8.09276 	-0.021063 	-6.8018e-20 8.08759 	-0.0229708 	-6.69062e-20 8.08235 	-0.0248795 	-6.57681e-20 8.07704 	-0.0267893 	-6.46037e-20 8.07157 	-0.0286303 	-5.67436e-20 8.06712 	-0.0305401 	-4.67727e-20 8.06277 	-0.0323532 	-3.68422e-20 8.05837 	-0.0341672 	-2.69154e-20 8.05391 	-0.0359819 	-1.69923e-20 8.05022 	-0.0374649 	-8.88998e-21 8.04938 	-0.0377837 	-7.07279e-21 8.04854 	-0.0381026 	-5.25548e-21 8.0477 	-0.0384215 	-3.43805e-21 8.04686 	-0.0387405 	-1.62049e-21 8.04616 	-0.039042 	-9.97463e-23 8.04116 	-0.0412889 	2.19152e-20 8.03618 	-0.0435255 	4.42082e-20 8.03111 	-0.0457631 	6.64901e-20 8.02596 	-0.0480015 	8.87609e-20 8.02191 	-0.0501058 	1.11009e-19 8.01644 	-0.052615 	1.21575e-19 8.01166 	-0.0550409 	1.22854e-19 8.00679 	-0.0574675 	1.24157e-19 8.00183 	-0.059895 	1.25486e-19 7.99911 	-0.0620616 	1.10015e-19 7.9931 	-0.0648523 	8.49066e-20 7.98853 	-0.067487 	6.12551e-20 7.98387 	-0.0701224 	3.75905e-20 7.9791 	-0.0727584 	1.39127e-20 7.97783 	-0.074998 	-5.03798e-21 7.97122 	-0.0780893 	-5.24992e-20 7.96687 	-0.0809537 	-7.6841e-20 7.96241 	-0.0838186 	-1.01226e-19 7.95784 	-0.0866839 	-1.25655e-19 7.95816 	-0.0890092 	-1.05326e-19 7.95086 	-0.0924197 	-8.49675e-20 7.94673 	-0.0955363 	-8.35678e-20 7.94248 	-0.0986531 	-8.21371e-20 7.93812 	-0.10177 	-8.06752e-20 7.94014 	-0.104196 	-9.16522e-20 7.93209 	-0.107944 	-6.7476e-20 7.92818 	-0.111338 	-2.29897e-20 7.92414 	-0.114731 	2.14966e-20 7.91998 	-0.118124 	6.59829e-20 7.92383 	-0.12067 	9.47666e-20 7.91497 	-0.124775 	6.78578e-20 7.91127 	-0.128473 	7.68387e-20 7.90745 	-0.13217 	8.57733e-20 7.90432 	-0.135783 	9.5258e-20 7.90929 	-0.138559 	1.1063e-19 7.90057 	-0.142969 	9.1828e-20 7.89607 	-0.147074 	6.87002e-20 7.89245 	-0.151106 	4.45231e-20 7.89144 	-0.154864 	2.56886e-20 7.89653 	-0.158005 	1.89715e-20 7.88816 	-0.162738 	2.23691e-20 7.88257 	-0.167284 	1.72305e-20 7.87914 	-0.171682 	5.41701e-21 7.88036 	-0.175617 	-2.98074e-21 7.88552 	-0.17916 	-8.4866e-21 7.87751 	-0.18425 	-3.53451e-21 7.87078 	-0.189256 	0 7.86751 	-0.194055 	0 7.87104 	-0.198205 	-4.41429e-21 7.87621 	-0.202187 	-9.95871e-21 7.86857 	-0.20767 	-5.02549e-21 7.86074 	-0.21315 	-9.91138e-23 7.85815 	-0.218334 	1.95376e-20 7.8634 	-0.222798 	3.95159e-20 7.86852 	-0.22726 	5.94768e-20 7.86124 	-0.233176 	3.68565e-20 7.85377 	-0.239088 	1.42069e-20 7.85219 	-0.2446 	1.07856e-20 7.85733 	-0.249584 	2.538e-20 7.86232 	-0.254564 	3.99484e-20 7.85539 	-0.260955 	2.17108e-20 7.84826 	-0.267341 	3.43366e-21 7.84773 	-0.273208 	-5.1874e-21 7.85266 	-0.278752 	-2.46448e-20 7.85744 	-0.284292 	-4.40814e-20 7.85084 	-0.2912 	-2.14779e-20 7.84444 	-0.298067 	-3.64474e-22 7.84518 	-0.304339 	-5.84846e-21 7.8492 	-0.310501 	-1.14677e-20 7.85365 	-0.31664 	-1.71186e-20 7.84736 	-0.324109 	-9.4118e-20 7.84407 	-0.331319 	-1.37291e-19 7.84477 	-0.338198 	-1.36652e-19 7.8467 	-0.345034 	-1.01597e-19 7.85073 	-0.35181 	-1.14934e-20 7.84469 	-0.359884 	-2.54767e-20 7.84441 	-0.367503 	-1.04952e-20 7.84499 	-0.375031 	9.67833e-21 7.84535 	-0.38255 	2.98505e-20 7.84839 	-0.390007 	4.18385e-20 7.84451 	-0.398592 	9.09386e-20 7.84511 	-0.406826 	8.53323e-20 7.84547 	-0.415047 	7.9613e-20 7.8456 	-0.423257 	7.37806e-20 7.84634 	-0.431445 	4.7041e-20 7.84515 	-0.435726 	6.32907e-20 7.84536 	-0.439903 	5.75177e-20 7.8455 	-0.444077 	5.17157e-20 7.8456 	-0.448248 	4.58848e-20 7.84563 	-0.452058 	4.05275e-20 7.84518 	-0.456841 	3.16262e-20 7.84466 	-0.46162 	2.26663e-20 7.84406 	-0.466393 	1.36478e-20 7.84338 	-0.471162 	4.57071e-21 7.84486 	-0.475906 	2.14981e-20 7.8428 	-0.485419 	4.93181e-20 7.84187 	-0.495009 	6.92967e-20 7.84065 	-0.504579 	8.92946e-20 7.83915 	-0.51413 	1.09312e-19 7.84357 	-0.523654 	9.67705e-20 7.83916 	-0.533807 	6.91956e-20 7.83715 	-0.544149 	4.15878e-20 7.83533 	-0.554508 	1.39253e-20 7.83647 	-0.56486 	5.05374e-21 7.84068 	-0.575216 	1.5575e-20 7.83608 	-0.586207 	8.18374e-20 7.83116 	-0.597175 	1.48119e-19 7.82945 	-0.608358 	1.38806e-19 7.83269 	-0.619584 	7.31346e-20 7.83563 	-0.630797 	7.49163e-21 7.83071 	-0.642668 	1.20351e-19 7.82545 	-0.654512 	2.333e-19 7.82461 	-0.666416 	2.30162e-19 7.8264 	-0.678513 	1.1477e-19 7.82787 	-0.690599 	-6.71107e-22 7.82248 	-0.703384 	-2.24715e-20 7.81974 	-0.716211 	-3.1801e-20 7.81865 	-0.729057 	-3.27315e-20 7.81723 	-0.741873 	-3.35146e-20 7.81684 	-0.754816 	-1.76689e-20 7.81296 	-0.765082 	8.47008e-22 7.81154 	-0.775404 	8.76146e-21 7.80992 	-0.785708 	1.66916e-20 7.80809 	-0.795994 	2.46375e-20 7.80632 	-0.804953 	3.15848e-20 7.80524 	-0.808609 	3.35022e-20 7.80412 	-0.812262 	3.54172e-20 7.80298 	-0.815912 	3.73298e-20 7.80181 	-0.819559 	3.924e-20 7.80078 	-0.823193 	4.11095e-20 7.79719 	-0.837674 	3.45786e-20 7.79272 	-0.852095 	3.05485e-20 7.78784 	-0.866475 	2.64508e-20 7.78259 	-0.880802 	2.50243e-20 7.77706 	-0.895059 	3.69271e-20 7.77301 	-0.910559 	5.68056e-20 7.76839 	-0.926001 	7.52907e-20 7.7617 	-0.941247 	7.53365e-20 7.75423 	-0.956358 	5.29856e-20 7.74631 	-0.97146 	3.05695e-20 7.7408 	-0.987923 	1.69961e-20 7.73464 	-1.00431 	5.17533e-21 7.72717 	-1.02051 	1.73403e-21 7.71853 	-1.03658 	3.23767e-21 7.70791 	-1.05246 	1.50525e-20 7.70302 	-1.0642 	-2.13733e-20 7.69687 	-1.07576 	-1.64163e-20 7.69038 	-1.08728 	-6.69948e-21 7.68366 	-1.09878 	3.09653e-21 7.67748 	-1.10899 	1.18781e-20 7.67482 	-1.11475 	1.57422e-20 7.6721 	-1.12051 	1.96199e-20 7.66934 	-1.12627 	2.35111e-20 7.66649 	-1.13201 	2.67271e-20 7.66322 	-1.13773 	2.03574e-20 7.65587 	-1.15587 	1.21926e-20 7.64659 	-1.17371 	7.52225e-21 7.63684 	-1.19149 	2.83545e-21 7.62585 	-1.20914 	4.69528e-21 7.61344 	-1.22671 	1.42683e-20 7.6046 	-1.24579 	8.97807e-21 7.59526 	-1.26482 	3.72641e-21 7.58329 	-1.28346 	-6.24189e-21 7.56799 	-1.30153 	-1.78889e-20 7.55212 	-1.31961 	-2.95966e-20 7.5411 	-1.33859 	-2.02481e-20 7.52749 	-1.35719 	-2.17585e-20 7.51276 	-1.37562 	-2.64468e-20 7.49752 	-1.39399 	-3.12032e-20 7.4841 	-1.4096 	-3.53153e-20 7.48305 	-1.41091 	-3.62803e-20 7.482 	-1.41222 	-3.72464e-20 7.48095 	-1.41353 	-3.82134e-20 7.47988 	-1.41484 	-3.82847e-20 7.47875 	-1.41614 	-3.5716e-20 7.46306 	-1.43596 	-1.34112e-20 7.44644 	-1.45559 	4.95491e-21 7.42927 	-1.47516 	2.34929e-20 7.41093 	-1.49452 	1.9771e-20 7.39082 	-1.51368 	-2.34556e-20 7.3738 	-1.53452 	-3.99509e-20 7.35619 	-1.55528 	-5.65112e-20 7.33612 	-1.57549 	-6.58599e-20 7.31215 	-1.59455 	-6.51421e-20 7.28744 	-1.61366 	-6.45267e-20 7.27418 	-1.62716 	-7.28354e-20 7.25945 	-1.64029 	-7.64684e-20 7.24361 	-1.65314 	-7.68315e-20 7.2275 	-1.66597 	-7.72179e-20 7.21271 	-1.67753 	-7.75883e-20 7.20402 	-1.685 	-8.53169e-20 7.19525 	-1.69247 	-9.30943e-20 7.1864 	-1.69992 	-1.00921e-19 7.17709 	-1.70728 	-9.49791e-20 7.16716 	-1.71454 	-7.0137e-20 7.14397 	-1.73586 	-4.28747e-20 7.11805 	-1.75622 	-2.18108e-20 7.09082 	-1.77622 	-2.72801e-21 7.05989 	-1.79528 	-3.77099e-21 7.028 	-1.81442 	-5.1282e-21 7.00096 	-1.835 	-1.76953e-21 6.97144 	-1.85493 	0 6.93924 	-1.87412 	0 6.90637 	-1.89323 	0 6.87752 	-1.90959 	0 6.87598 	-1.91056 	0 6.87444 	-1.91153 	0 6.87289 	-1.9125 	0 6.87126 	-1.91345 	3.24022e-22 6.86956 	-1.91438 	9.05036e-22 6.83621 	-1.93424 	0 6.80162 	-1.95375 	0 6.76636 	-1.97319 	0 6.72781 	-1.9917 	1.21167e-21 6.68674 	-2.0099 	3.08747e-21 6.65038 	-2.02993 	2.45284e-21 6.61183 	-2.04935 	-3.90608e-21 6.56918 	-2.06745 	-2.36625e-20 6.52575 	-2.08546 	-4.34841e-20 6.48094 	-2.10361 	-6.36343e-20 6.48093 	-2.10362 	-6.36417e-20 6.48092 	-2.10362 	-6.36465e-20 6.48091 	-2.10362 	-6.3644e-20 6.48091 	-2.10363 	-6.36415e-20 6.4809 	-2.10363 	-6.3639e-20 6.43703 	-2.12163 	-4.91971e-20 6.39242 	-2.13958 	-3.45941e-20 6.34706 	-2.15747 	-1.98278e-20 6.29748 	-2.17401 	-1.88471e-20 6.24487 	-2.19017 	-2.3708e-20 6.20417 	-2.20558 	-3.99472e-20 6.16177 	-2.22049 	-4.9458e-20 6.11498 	-2.2338 	-3.57025e-20 6.06754 	-2.24704 	-2.17506e-20 6.02527 	-2.25863 	-9.31378e-21 6.01649 	-2.26153 	-6.31738e-21 6.00768 	-2.26443 	-3.31256e-21 5.99885 	-2.26733 	-2.99306e-22 5.98935 	-2.26997 	-4.42287e-21 5.97965 	-2.27255 	-1.02857e-20 5.92612 	-2.28989 	-4.55144e-20 5.8694 	-2.30559 	-6.75268e-20 5.81084 	-2.3207 	-8.12802e-20 5.74712 	-2.33347 	-5.12601e-20 5.68107 	-2.34647 	-2.06782e-20 5.65079 	-2.35392 	-1.77949e-20 5.6201 	-2.36121 	-1.50687e-20 5.58703 	-2.36665 	-1.41939e-20 5.55371 	-2.37208 	-1.33333e-20 5.5226 	-2.37709 	-1.2549e-20 5.48978 	-2.38443 	-8.47328e-21 5.45668 	-2.39177 	-4.3887e-21 5.42332 	-2.3991 	-2.9519e-22 5.38874 	-2.40394 	-1.84405e-21 5.35333 	-2.40864 	-3.86394e-21 5.28722 	-2.42103 	-3.05044e-21 5.22003 	-2.43336 	-2.26775e-21 5.15163 	-2.43732 	4.45985e-21 5.08231 	-2.44094 	1.13715e-20 5.01241 	-2.44445 	1.82429e-20 5.01194 	-2.44452 	1.82785e-20 5.01147 	-2.44458 	1.83141e-20 5.011 	-2.44464 	1.83479e-20 5.01055 	-2.44463 	1.82879e-20 5.0101 	-2.44462 	1.82279e-20 4.94414 	-2.44593 	5.97808e-21 4.8773 	-2.44708 	-6.45724