# vtk DataFile Version 2.0
track0
ASCII
DATASET POLYDATA
POINTS 11880 float
-0.0205 0.001 1e-05
-0.0202034 0.0010001 1e-05
-0.0199069 0.00100035 1e-05
-0.0196103 0.00100072 1e-05
-0.0193137 0.0010012 1e-05
-0.0190172 0.00100179 1e-05
-0.0187132 0.00100302 1e-05
-0.0184093 0.00100345 1e-05
-0.0181054 0.00100385 1e-05
-0.0178015 0.00100422 1e-05
-0.0174976 0.00100457 1e-05
-0.0172058 0.00100548 1e-05
-0.016914 0.00100571 1e-05
-0.0166222 0.00100595 1e-05
-0.0163305 0.00100621 1e-05
-0.0160387 0.00100648 1e-05
-0.0157586 0.00100728 1e-05
-0.0154784 0.00100761 1e-05
-0.0151983 0.00100798 1e-05
-0.0149182 0.00100839 1e-05
-0.0146381 0.00100886 1e-05
-0.0143692 0.00100974 1e-05
-0.0141002 0.00101029 1e-05
-0.0138313 0.00101088 1e-05
-0.0135624 0.00101152 1e-05
-0.0132934 0.0010122 1e-05
-0.0130353 0.00101317 1e-05
-0.0127771 0.00101391 1e-05
-0.0125189 0.00101469 1e-05
-0.0122607 0.0010155 1e-05
-0.0120025 0.00101635 1e-05
-0.0117547 0.00101738 1e-05
-0.0115068 0.00101826 1e-05
-0.0112589 0.00101917 1e-05
-0.0110111 0.00102011 1e-05
-0.0107632 0.00102107 1e-05
-0.0105252 0.00102212 1e-05
-0.0102873 0.0010231 1e-05
-0.0100493 0.00102409 1e-05
-0.00981133 0.00102511 1e-05
-0.00957337 0.00102614 1e-05
-0.00934491 0.00102721 1e-05
-0.00911645 0.00102823 1e-05
-0.00888799 0.00102927 1e-05
-0.00865954 0.00103033 1e-05
-0.00843108 0.00103139 1e-05
-0.00821175 0.00103246 1e-05
-0.00799242 0.00103351 1e-05
-0.00777309 0.00103457 1e-05
-0.00755376 0.00103564 1e-05
-0.00733443 0.00103671 1e-05
-0.00719258 0.00103742 1e-05
-0.00705073 0.00103813 1e-05
-0.00690888 0.00103883 1e-05
-0.00676703 0.00103954 1e-05
-0.00662626 0.00104025 1e-05
-0.00655732 0.0010406 1e-05
-0.00648839 0.00104095 1e-05
-0.00641946 0.0010413 1e-05
-0.00635053 0.00104165 1e-05
-0.0062816 0.001042 1e-05
-0.00607944 0.00104303 1e-05
-0.00587729 0.00104406 1e-05
-0.00567514 0.0010451 1e-05
-0.00547298 0.00104614 1e-05
-0.00527083 0.00104718 1e-05
-0.00507675 0.00104818 1e-05
-0.00488267 0.00104919 1e-05
-0.0046886 0.0010502 1e-05
-0.00449452 0.00105121 1e-05
-0.00430044 0.00105222 1e-05
-0.00411412 0.00105318 1e-05
-0.0039278 0.00105415 1e-05
-0.00374147 0.00105513 1e-05
-0.00355515 0.0010561 1e-05
-0.00336883 0.00105707 1e-05
-0.00318995 0.001058 1e-05
-0.00301107 0.00105893 1e-05
-0.00283219 0.00105987 1e-05
-0.00265331 0.0010608 1e-05
-0.00247443 0.00106174 1e-05
-0.0023027 0.00106262 1e-05
-0.00213097 0.00106352 1e-05
-0.00195924 0.00106441 1e-05
-0.0017875 0.00106531 1e-05
-0.00161577 0.0010662 1e-05
-0.0014509 0.00106705 1e-05
-0.00128603 0.0010679 1e-05
-0.00112116 0.00106874 1e-05
-0.000956289 0.00106958 1e-05
-0.000791418 0.00107042 1e-05
-0.000633135 0.00107121 1e-05
-0.000474851 0.00107199 1e-05
-0.000316567 0.00107276 1e-05
-0.000158283 0.00107351 1e-05
0 0.00107424 1e-05
0.000105677 0.00107471 1e-05
0.000211355 0.00107518 1e-05
0.000317032 0.00107564 1e-05
0.00042271 0.00107608 1e-05
0.000528387 0.00107651 1e-05
0.000634886 0.00107692 1e-05
0.000741385 0.00107733 1e-05
0.000847885 0.00107772 1e-05
0.000954384 0.00107811 1e-05
0.00106088 0.00107848 1e-05
0.00116821 0.00107884 1e-05
0.00127554 0.00107919 1e-05
0.00138286 0.00107954 1e-05
0.00149019 0.00107987 1e-05
0.00159752 0.00108019 1e-05
0.00170568 0.00108049 1e-05
0.00181384 0.0010808 1e-05
0.001922 0.00108109 1e-05
0.00203016 0.00108138 1e-05
0.00213833 0.00108165 1e-05
0.00224733 0.00108191 1e-05
0.00235633 0.00108216 1e-05
0.00246533 0.00108242 1e-05
0.00257434 0.00108266 1e-05
0.00268334 0.00108289 1e-05
0.00279319 0.00108311 1e-05
0.00290304 0.00108333 1e-05
0.00301289 0.00108355 1e-05
0.00312274 0.00108376 1e-05
0.00323259 0.00108397 1e-05
0.00334329 0.00108416 1e-05
0.003454 0.00108435 1e-05
0.0035647 0.00108454 1e-05
0.0036754 0.00108472 1e-05
0.00378611 0.0010849 1e-05
0.00389767 0.00108506 1e-05
0.00400924 0.00108523 1e-05
0.0041208 0.0010854 1e-05
0.00423237 0.00108556 1e-05
0.00434393 0.00108571 1e-05
0.00445636 0.00108585 1e-05
0.00456879 0.001086 1e-05
0.00468123 0.00108614 1e-05
0.00479366 0.00108628 1e-05
0.00490609 0.00108641 1e-05
0.0050194 0.00108653 1e-05
0.0051327 0.00108666 1e-05
0.00524601 0.00108678 1e-05
0.00535932 0.00108689 1e-05
0.00547262 0.001087 1e-05
0.00555259 0.00108707 1e-05
0.00563256 0.00108715 1e-05
0.00571252 0.00108722 1e-05
0.00579249 0.00108728 1e-05
0.00586974 0.00108735 1e-05
0.0059045 0.00108737 1e-05
0.00593927 0.0010874 1e-05
0.00597403 0.00108743 1e-05
0.00600879 0.00108745 1e-05
0.00604356 0.00108748 1e-05
0.00615863 0.00108756 1e-05
0.00627371 0.00108764 1e-05
0.00638878 0.00108772 1e-05
0.00650386 0.00108778 1e-05
0.00661893 0.00108785 1e-05
0.0067349 0.00108791 1e-05
0.00685087 0.00108796 1e-05
0.00696684 0.00108801 1e-05
0.00708281 0.00108806 1e-05
0.00719878 0.0010881 1e-05
0.00731565 0.00108813 1e-05
0.00743252 0.00108816 1e-05
0.00754939 0.00108819 1e-05
0.00766626 0.00108821 1e-05
0.00778313 0.00108822 1e-05
0.00790091 0.00108823 1e-05
0.00801869 0.00108823 1e-05
0.00813647 0.00108823 1e-05
0.00825425 0.00108822 1e-05
0.00837203 0.00108821 1e-05
0.00849073 0.00108818 1e-05
0.00860942 0.00108816 1e-05
0.00872812 0.00108813 1e-05
0.00884682 0.00108809 1e-05
0.00896551 0.00108805 1e-05
0.00908513 0.00108799 1e-05
0.00920475 0.00108793 1e-05
0.00932437 0.00108787 1e-05
0.00944398 0.0010878 1e-05
0.0095636 0.00108773 1e-05
0.00968415 0.00108763 1e-05
0.0098047 0.00108754 1e-05
0.00992525 0.00108745 1e-05
0.0100458 0.00108735 1e-05
0.0101663 0.00108724 1e-05
0.0102878 0.00108711 1e-05
0.0104093 0.00108698 1e-05
0.0105308 0.00108685 1e-05
0.0106523 0.00108672 1e-05
0.0107738 0.00108657 1e-05
0.0108962 0.0010864 1e-05
0.0110186 0.00108624 1e-05
0.0111411 0.00108607 1e-05
0.0112635 0.0010859 1e-05
0.0113859 0.00108572 1e-05
0.0115093 0.0010855 1e-05
0.0116327 0.0010853 1e-05
0.0117561 0.00108509 1e-05
0.0118795 0.00108488 1e-05
0.0120028 0.00108466 1e-05
0.0121272 0.0010844 1e-05
0.0122515 0.00108416 1e-05
0.0123759 0.00108391 1e-05
0.0125002 0.00108365 1e-05
0.0126245 0.00108338 1e-05
0.0127498 0.00108308 1e-05
0.0128752 0.0010828 1e-05
0.0130005 0.0010825 1e-05
0.0131258 0.0010822 1e-05
0.0132511 0.00108189 1e-05
0.0133774 0.00108154 1e-05
0.0135036 0.00108121 1e-05
0.0136299 0.00108087 1e-05
0.0137562 0.00108052 1e-05
0.0138825 0.00108016 1e-05
0.0140098 0.00107976 1e-05
0.014137 0.00107938 1e-05
0.0142643 0.00107899 1e-05
0.0143915 0.00107859 1e-05
0.0145188 0.00107818 1e-05
0.0146471 0.00107774 1e-05
0.0147753 0.00107731 1e-05
0.0149036 0.00107686 1e-05
0.0150318 0.00107641 1e-05
0.0151601 0.00107595 1e-05
0.0152893 0.00107546 1e-05
0.0154186 0.00107497 1e-05
0.0155478 0.00107447 1e-05
0.0156771 0.00107397 1e-05
0.0158063 0.00107345 1e-05
0.0159366 0.00107291 1e-05
0.0160668 0.00107237 1e-05
0.0161971 0.00107181 1e-05
0.0163274 0.00107125 1e-05
0.0164576 0.00107068 1e-05
0.0165889 0.00107008 1e-05
0.0167201 0.00106948 1e-05
0.0168514 0.00106887 1e-05
0.0169827 0.00106825 1e-05
0.0171139 0.00106762 1e-05
0.0172462 0.00106697 1e-05
0.0173785 0.00106631 1e-05
0.0175108 0.00106564 1e-05
0.0176431 0.00106496 1e-05
0.0177754 0.00106428 1e-05
0.0179087 0.00106357 1e-05
0.018042 0.00106285 1e-05
0.0181753 0.00106212 1e-05
0.0183087 0.00106138 1e-05
0.018442 0.00106063 1e-05
0.0185763 0.00105987 1e-05
0.0187107 0.00105909 1e-05
0.018845 0.0010583 1e-05
0.0189794 0.0010575 1e-05
0.0191137 0.00105669 1e-05
0.0192491 0.00105586 1e-05
0.0193845 0.00105502 1e-05
0.0195199 0.00105417 1e-05
0.0196553 0.0010533 1e-05
0.0197907 0.00105243 1e-05
0.0199272 0.00105155 1e-05
0.0200636 0.00105065 1e-05
0.0202001 0.00104973 1e-05
0.0203365 0.0010488 1e-05
0.020473 0.00104787 1e-05
0.0206105 0.00104693 1e-05
0.020748 0.00104597 1e-05
0.0208855 0.00104498 1e-05
0.021023 0.00104398 1e-05
0.0211606 0.00104299 1e-05
0.0212991 0.00104199 1e-05
0.0214377 0.00104096 1e-05
0.0215763 0.00103991 1e-05
0.0217149 0.00103884 1e-05
0.0218535 0.00103779 1e-05
0.0219931 0.00103673 1e-05
0.0221328 0.00103564 1e-05
0.0222724 0.00103452 1e-05
0.0224121 0.00103339 1e-05
0.0225517 0.00103227 1e-05
0.0226925 0.00103115 1e-05
0.0228332 0.00102999 1e-05
0.022974 0.00102881 1e-05
0.0231147 0.00102761 1e-05
0.0232555 0.00102643 1e-05
0.0233973 0.00102524 1e-05
0.0235391 0.00102403 1e-05
0.023681 0.00102278 1e-05
0.0238228 0.00102152 1e-05
0.0239647 0.00102027 1e-05
0.0241076 0.00101902 1e-05
0.0242505 0.00101774 1e-05
0.0243935 0.00101642 1e-05
0.0245364 0.00101509 1e-05
0.0246794 0.00101378 1e-05
0.0248234 0.00101247 1e-05
0.0249675 0.00101112 1e-05
0.0251115 0.00100974 1e-05
0.0252556 0.00100835 1e-05
0.0253996 0.00100697 1e-05
0.0255448 0.00100559 1e-05
0.02569 0.00100418 1e-05
0.0258351 0.00100273 1e-05
0.0259803 0.00100127 1e-05
0.0261255 0.000999823 1e-05
0.0262718 0.000998381 1e-05
0.0264181 0.000996902 1e-05
0.0265644 0.000995385 1e-05
0.0267107 0.000993859 1e-05
0.026857 0.000992347 1e-05
0.0270044 0.000990838 1e-05
0.0271519 0.000989292 1e-05
0.0272993 0.000987707 1e-05
0.0274467 0.000986114 1e-05
0.0275942 0.000984534 1e-05
0.0277428 0.000982957 1e-05
0.0278914 0.000981342 1e-05
0.0280399 0.000979693 1e-05
0.0281885 0.000978035 1e-05
0.0283371 0.000976387 1e-05
0.0284869 0.000974741 1e-05
0.0286366 0.000973056 1e-05
0.0287863 0.000971342 1e-05
0.0289361 0.000969618 1e-05
0.0290858 0.0009679 1e-05
0.0292367 0.000966183 1e-05
0.0293876 0.000964428 1e-05
0.0295385 0.000962646 1e-05
0.0296894 0.000960855 1e-05
0.0298403 0.000959066 1e-05
0.0299924 0.000957277 1e-05
0.0301445 0.00095545 1e-05
0.0302966 0.0009536 1e-05
0.0304486 0.000951741 1e-05
0.0306007 0.000949879 1e-05
0.030754 0.000948016 1e-05
0.0309072 0.000946115 1e-05
0.0310605 0.000944195 1e-05
0.0312138 0.000942265 1e-05
0.031367 0.000940329 1e-05
0.0315215 0.00093839 1e-05
0.0316759 0.000936413 1e-05
0.0318304 0.000934422 1e-05
0.0319848 0.000932419 1e-05
0.0321393 0.000930407 1e-05
0.0322949 0.00092839 1e-05
0.0324506 0.000926335 1e-05
0.0326062 0.000924269 1e-05
0.0327619 0.000922192 1e-05
0.0329175 0.000920104 1e-05
0.0330744 0.000918006 1e-05
0.0332313 0.000915875 1e-05
0.0333881 0.000913733 1e-05
[...]
POINT_DATA 11880
 FIELD attributes 2
p 1 11880 float
-4.03542 -4.02777 -4.01975 -4.01169 -4.0036 -4.00411 -3.97704 -3.99313 -4.00921 -4.02527 -4.08644 -4.09257 -4.13139 -4.17021 -4.20904 -4.27064 -4.26987 -4.29689 -4.32391 -4.35096 -4.39748 -4.40125 -4.42459 -4.44795 -4.47132 -4.50943 -4.5186 -4.5403 -4.56202 -4.58374 -4.61491 -4.62617 -4.64535 -4.66454 -4.68373 -4.70869 -4.72088 -4.73793 -4.75498 -4.77203 -4.7924 -4.8053 -4.82094 -4.83658 -4.85222 -4.8695 -4.88285 -4.89753 -4.9122 -4.92689 -4.94208 -4.95107 -4.96048 -4.96989 -4.9793 -4.98864 -4.99321 -4.99778 -5.00235 -5.00692 -5.01134 -5.02489 -5.03832 -5.05176 -5.0652 -5.07814 -5.09159 -5.10467 -5.11775 -5.13083 -5.1432 -5.15663 -5.16951 -5.1824 -5.19529 -5.20735 -5.22089 -5.23382 -5.24674 -5.25967 -5.27175 -5.28589 -5.29946 -5.31303 -5.32661 -5.33939 -5.35562 -5.3717 -5.38779 -5.40387 -5.41929 -5.43743 -5.45501 -5.47258 -5.49015 -5.50612 -5.52022 -5.53199 -5.54377 -5.55555 -5.56502 -5.57486 -5.58151 -5.58815 -5.5948 -5.59902 -5.6077 -5.61311 -5.61852 -5.62393 -5.62658 -5.63513 -5.64011 -5.64509 -5.65007 -5.65186 -5.65897 -5.66263 -5.66629 -5.66995 -5.67058 -5.67606 -5.67871 -5.68135 -5.68399 -5.68418 -5.68842 -5.69056 -5.69269 -5.69482 -5.69519 -5.69839 -5.70017 -5.70194 -5.70371 -5.70438 -5.70671 -5.70818 -5.70965 -5.71112 -5.71202 -5.7137 -5.71496 -5.71621 -5.71747 -5.71854 -5.71946 -5.72025 -5.72104 -5.72183 -5.7226 -5.72294 -5.72329 -5.72363 -5.72397 -5.72434 -5.7254 -5.72648 -5.72755 -5.72862 -5.72973 -5.73081 -5.73188 -5.73296 -5.73403 -5.73513 -5.73627 -5.7374 -5.73853 -5.73965 -5.74082 -5.742 -5.7432 -5.74441 -5.74562 -5.74695 -5.74809 -5.74938 -5.75068 -5.75198 -5.7536 -5.75458 -5.75598 -5.75737 -5.75876 -5.76077 -5.76152 -5.76301 -5.76451 -5.766 -5.76851 -5.76893 -5.77053 -5.77212 -5.77372 -5.77682 -5.77684 -5.77854 -5.78024 -5.78193 -5.78569 -5.78528 -5.78707 -5.78887 -5.79067 -5.79511 -5.79425 -5.79614 -5.79804 -5.79993 -5.80507 -5.80377 -5.80576 -5.80775 -5.80974 -5.81554 -5.81384 -5.81593 -5.81801 -5.8201 -5.82651 -5.82448 -5.82665 -5.82883 -5.831 -5.83794 -5.83567 -5.83793 -5.84019 -5.8425 -5.84982 -5.8476 -5.84975 -5.8521 -5.8549 -5.86212 -5.86024 -5.86209 -5.86452 -5.86779 -5.87481 -5.87333 -5.87493 -5.87743 -5.8811 -5.88786 -5.88682 -5.88823 -5.89081 -5.89481 -5.90125 -5.90068 -5.90197 -5.90463 -5.90888 -5.91499 -5.91491 -5.91616 -5.91889 -5.92333 -5.92907 -5.92948 -5.93077 -5.93357 -5.93809 -5.94347 -5.94435 -5.94574 -5.94861 -5.95314 -5.95815 -5.95947 -5.96103 -5.96396 -5.96843 -5.9731 -5.97482 -5.97658 -5.97957 -5.98392 -5.98828 -5.99036 -5.99245 -5.99552 -5.9996 -6.00367 -6.00608 -6.00849 -6.0116 -6.01544 -6.01928 -6.02196 -6.02464 -6.0278 -6.03144 -6.03507 -6.03799 -6.04091 -6.0441 -6.04757 -6.05104 -6.05415 -6.05726 -6.06049 -6.06383 -6.06718 -6.07044 -6.0737 -6.07695 -6.0802 -6.08345 -6.08682 -6.09019 -6.09347 -6.09665 -6.09983 -6.10328 -6.10673 -6.11001 -6.11315 -6.11629 -6.11978 -6.12325 -6.12653 -6.12968 -6.13279 -6.1363 -6.13975 -6.14304 -6.14621 -6.14932 -6.15282 -6.15624 -6.15953 -6.16273 -6.16585 -6.16933 -6.17271 -6.176 -6.17923 -6.18236 -6.18581 -6.18915 -6.19243 -6.19568 -6.19882 -6.20223 -6.20551 -6.20878 -6.21204 -6.21518 -6.21853 -6.22176 -6.225 -6.22824 -6.2314 -6.23467 -6.23787 -6.24107 -6.24428 -6.24744 -6.25062 -6.25378 -6.25695 -6.26011 -6.26325 -6.26636 -6.26946 -6.27257 -6.27568 -6.27878 -6.28182 -6.28486 -6.2879 -6.29094 -6.29398 -6.29694 -6.29991 -6.30287 -6.30584 -6.3088 -6.30883 -6.30886 -6.30888 -6.30891 -6.30893 -6.3118 -6.31467 -6.31754 -6.32041 -6.32329 -6.32609 -6.32889 -6.3317 -6.3345 -6.33731 -6.34001 -6.34271 -6.3454 -6.3481 -6.3508 -6.35341 -6.35598 -6.35856 -6.36113 -6.36371 -6.3662 -6.36864 -6.37108 -6.37352 -6.37594 -6.37831 -6.3806 -6.38289 -6.38517 -6.38742 -6.38964 -6.39179 -6.39391 -6.39601 -6.39807 -6.40012 -6.40212 -6.40405 -6.40594 -6.4078 -6.40966 -6.41149 -6.41323 -6.41489 -6.41653 -6.41819 -6.41985 -6.42137 -6.42278 -6.42419 -6.42564 -6.42709 -6.42838 -6.42955 -6.43072 -6.43194 -6.43316 -6.43422 -6.43513 -6.43604 -6.437 -6.43797 -6.43879 -6.43942 -6.44005 -6.44074 -6.44145 -6.442 -6.44233 -6.44266 -6.44307 -6.44345 -6.44369 -6.44378 -6.44379 -6.4439 -6.44392 -6.44385 -6.44368 -6.44336 -6.44316 -6.44281 -6.4424 -6.44197 -6.44131 -6.44076 -6.44001 -6.43926 -6.4385 -6.43753 -6.43657 -6.43544 -6.43432 -6.4332 -6.43193 -6.43052 -6.429 -6.42749 -6.42597 -6.42441 -6.42335 -6.42225 -6.42115 -6.42005 -6.41899 -6.41817 -6.41736 -6.41655 -6.41573 -6.41493 -6.41261 -6.4103 -6.40798 -6.40567 -6.40338 -6.40063 -6.39785 -6.39507 -6.3923 -6.38953 -6.38633 -6.38305 -6.37978 -6.37651 -6.37322 -6.36953 -6.36575 -6.36194 -6.35812 -6.35427 -6.35003 -6.34575 -6.34137 -6.33694 -6.3325 -6.32767 -6.32285 -6.31785 -6.31276 -6.30767 -6.30221 -6.29675 -6.29113 -6.28535 -6.27956 -6.27342 -6.26729 -6.26099 -6.25446 -6.24793 -6.24106 -6.23414 -6.22706 -6.21983 -6.2125 -6.20485 -6.19703 -6.18913 -6.18119 -6.17301 -6.1645 -6.15571 -6.14693 -6.13815 -6.12917 -6.11962 -6.10989 -6.10017 -6.09045 -6.08069 -6.07765 -6.07457 -6.07148 -6.0684 -6.06538 -6.05773 -6.05009 -6.04245 -6.03481 -6.02712 -6.01543 -6.00366 -5.9919 -5.98015 -5.96822 -5.95556 -5.94269 -5.92983 -5.91693 -5.90376 -5.89002 -5.87609 -5.86207 -5.84784 -5.83346 -5.81853 -5.80357 -5.78832 -5.77267 -5.75701 -5.74084 -5.72467 -5.7081 -5.69111 -5.67413 -5.65665 -5.63918 -5.62123 -5.60287 -5.5845 -5.56566 -5.54659 -5.52719 -5.50764 -5.48782 -5.46755 -5.44672 -5.42584 -5.40497 -5.38377 -5.36173 -5.3393 -5.31688 -5.29448 -5.27205 -5.2701 -5.26811 -5.26613 -5.26415 -5.26218 -5.24025 -5.21834 -5.19643 -5.17454 -5.15216 -5.12706 -5.10152 -5.076 -5.05046 -5.02388 -4.99737 -4.97037 -4.94313 -4.91524 -4.88689 -4.85864 -4.8304 -4.80124 -4.77105 -4.74086 -4.7108 -4.68075 -4.64964 -4.61755 -4.58546 -4.55352 -4.52111 -4.48789 -4.4544 -4.42035 -4.38646 -4.35124 -4.31602 -4.28082 -4.2452 -4.22586 -4.20602 -4.18619 -4.16637 -4.14741 -4.12991 -4.11241 -4.09491 -4.07741 -4.05945 -4.0207 -3.98156 -3.94244 -3.90334 -3.86271 -3.82238 -3.78142 -3.74015 -3.69784 -3.65496 -3.61245 -3.56995 -3.52618 -3.48108 -3.43595 -3.3912 -3.3463 -3.29989 -3.25285 -3.20544 -3.1584 -3.10992 -3.0612 -3.01249 -2.9632 -2.93902 -2.91418 -2.88934 -2.86451 -2.84069 -2.81443 -2.78817 -2.76191 -2.73566 -2.70867 -2.65618 -2.60309 -2.55002 -2.49661 -2.44169 -2.38724 -2.33259 -2.27713 -2.21987 -2.16257 -2.10574 -2.04892 -1.99056 -1.93098 -1.8713 -1.81207 -1.75155 -1.69053 -1.62954 -1.5679 -1.54172 -1.51484 -1.48797 -1.46111 -1.43522 -1.39874 -1.36227 -1.32581 -1.28936 -1.25192 -1.1874 -1.12211 -1.05684 -0.990804 -0.923666 -0.857012 -0.790383 -0.722468 -0.653196 -0.583834 -0.514923 -0.445432 -0.374874 -0.304274 -0.232767 -0.187744 -0.141721 -0.0956944 -0.0496778 -0.00618838 0.0208238 0.0478319 0.0748358 0.101842 0.129475 0.203281 0.277573 0.351833 0.426693 0.502596 0.57808 0.653532 0.73002 0.807561 0.885251 0.962573 1.04058 1.11912 1.19763 1.27668 1.29887 1.32133 1.34383 1.36633 1.38827 1.44578 1.50328 1.56075 1.61831 1.67668 1.75736 1.83827 1.91941 2.00144 2.0837 2.16567 2.2477 2.33034 2.41304 2.4963 2.53847 2.58084 2.62326 2.66566 2.70617 2.7476 2.78903 2.83044 2.87189 2.91361 2.99743 3.08142 3.16543 3.24962 3.33412 3.41844 3.50272 3.58696 3.67118 3.75584 3.78908 3.82226 3.85539 3.88852 3.92052 3.97199 4.02343 4.07486 4.12616 4.17737 4.26172 4.34598 4.42997 4.51328 4.59692 4.68079 4.76407 4.84685 4.92957 5.01261 5.01417 5.01571 5.01724 5.01878 5.02031 5.10137 5.18238 5.26335 5.34406 5.42462 5.50621 5.58774 5.66865 5.74909 5.82986 5.88601 5.94171 5.9971 6.05246 6.1055 6.12994 6.15437 6.1788 6.20313 6.22736 6.30572 6.38384 6.46192 6.53915 6.61654 6.69304 6.76913 6.84445 6.91973 6.99514 7.004 7.01278 7.02149 7.03019 7.03886 7.10422 7.16957 7.23489 7.29966 7.36404 7.43629 7.50851 7.57956 7.65018 7.72078 7.74825 7.77545 7.80233 7.82921 7.85593 7.89816 7.94039 7.98262 8.02441 8.06584 8.13324 8.20063 8.26706 8.33255 8.39806 8.43669 8.47492 8.51263 8.55034 8.58827 8.61421 8.64016 8.6661 8.69172 8.71707 8.77924 8.84126 8.90265 8.96279 9.02285 9.07023 9.11706 9.16316 9.20929 9.25675 9.26831 9.27987 9.29143 9.30283 9.31408 9.37059 9.42669 9.48281 9.53758 9.59193 9.64553 9.69855 9.75054 9.80257 9.85422 9.85849 9.8627 9.86683 9.87096 9.87512 9.92112 9.96716 10.0132 10.0586 10.103 10.1508 10.1986 10.2451 10.2908 10.3362 10.3597 10.3826 10.4052 10.4277 10.4515 10.4724 10.4933 10.5142 10.5348 10.5549 10.5968 10.6384 10.6797 10.7195 10.7592 10.798 10.8364 10.8739 10.9113 10.9482 10.9581 10.9677 10.9772 10.9867 10.9965 11.0222 11.0478 11.0735 11.099 11.1236 11.1568 11.1899 11.2224 11.2538 11.285 11.3154 11.3455 11.3747 11.4038 11.4323 11.4479 11.4628 11.4778 11.4927 11.509 11.5206 11.5323 11.544 11.5556 11.5668 11.5919 11.6166 11.6413 11.6656 11.6892 11.7119 11.7347 11.7567 11.778 11.7992 11.8196 11.8398 11.8593 11.8787 11.8977 11.9146 11.9308 11.9471 11.9633 11.9826 11.9832 11.9837 11.9842 11.9848 11.9853 12.0011 12.0168 12.0326 12.0483 12.0635 12.0777 12.0916 12.1054 12.1189 12.1321 12.1445 12.1569 12.1688 12.1803 12.1917 12.2024 12.2132 12.2234 12.2333 12.2431 12.2523 12.2613 12.27 12.2786 12.287 12.2947 12.3021 12.3095 12.3168 12.3239 12.3302 12.3363 12.3424 12.3485 12.3546 12.3568 12.3591 12.3613 12.3635 12.366 12.3687 12.3715 12.3742 12.377 12.3797 12.3837 12.3878 12.3918 12.3958 12.3997 12.403 12.4061 12.4092 12.4123 12.4152 12.4177 12.4201 12.4224 12.4246 12.4268 12.4286 12.4303 12.4319 12.4335 12.435 12.4362 12.4374 12.4385 12.4395 12.4405 12.4413 12.4421 12.4427 12.4433 12.4439 12.4443 12.4448 12.4451 12.4456 12.4462 12.4466 12.4471 12.447 12.4468 12.4465 12.4462 12.4459 12.4466 12.4485 12.4503 12.4522 12.454 12.451 12.4437 12.4364 12.4288 12.4212 12.4224 12.4329 12.4433 12.4538 12.4644 12.4626 12.4487 12.4347 12.4197 12.4052 12.3932 12.3823 12.3721 12.3611 12.349 12.3366 12.3242 12.3109 12.2964 12.2816 12.2668 12.2519 12.2363 12.2361 12.2358 12.2356 12.2353 12.2351 12.2183 12.2016 12.1848 12.168 12.151 12.1321 12.1127 12.0933 12.0738 12.0539 12.0327 12.0112 11.9892 11.9667 11.944 11.92 11.896 11.8711 11.8454 11.8197 11.7924 11.7651 11.7368 11.7077 11.6783 11.6472 11.6152 11.5828 11.5504 11.5169 11.4845 11.4511 11.4177 11.3843 11.3475 11.3444 11.3412 11.338 11.3348 11.3315 11.2894 11.247 11.2046 11.1622 11.1184 11.0715 11.0224 10.9731 10.9229 10.8713 10.8167 10.7619 10.7043 10.644 10.5837 10.52 10.4564 10.3893 10.3186 10.2479 10.1733 10.0969 10.018 9.93819 9.8555 9.76815 9.67541 9.58264 9.48986 9.39515 9.34719 9.29761 9.24802 9.19843 9.14262 9.08628 9.02993 8.97355 8.91716 8.85906 8.73685 8.61117 8.4854 8.35955 8.22486 8.08278 7.93825 7.79315 7.64651 7.49807 7.34276 7.18467 7.00756 6.80544 6.60317 6.39203 6.1808 5.99154 5.82319 5.65478 5.47888 5.30186 5.00976 4.64007 4.25758 3.85908 3.56856 3.3893 3.26423 3.26506 3.26418 2.49604 1.71786 0.934982 0