# vtk DataFile Version 2.0
track0
ASCII
DATASET POLYDATA
POINTS 11880 float
-0.0205 0.001 1e-05
-0.0202034 0.0010001 1e-05
-0.0199069 0.00100035 1e-05
-0.0196103 0.00100072 1e-05
-0.0193137 0.0010012 1e-05
-0.0190172 0.00100179 1e-05
-0.0187132 0.00100302 1e-05
-0.0184093 0.00100345 1e-05
-0.0181054 0.00100385 1e-05
-0.0178015 0.00100422 1e-05
-0.0174976 0.00100457 1e-05
-0.0172058 0.00100548 1e-05
-0.016914 0.00100571 1e-05
-0.0166222 0.00100595 1e-05
-0.0163305 0.00100621 1e-05
-0.0160387 0.00100648 1e-05
-0.0157586 0.00100728 1e-05
-0.0154784 0.00100761 1e-05
-0.0151983 0.00100798 1e-05
-0.0149182 0.00100839 1e-05
-0.0146381 0.00100886 1e-05
-0.0143692 0.00100974 1e-05
-0.0141002 0.00101029 1e-05
-0.0138313 0.00101088 1e-05
-0.0135624 0.00101152 1e-05
-0.0132934 0.0010122 1e-05
-0.0130353 0.00101317 1e-05
-0.0127771 0.00101391 1e-05
-0.0125189 0.00101469 1e-05
-0.0122607 0.0010155 1e-05
-0.0120025 0.00101635 1e-05
-0.0117547 0.00101738 1e-05
-0.0115068 0.00101826 1e-05
-0.0112589 0.00101917 1e-05
-0.0110111 0.00102011 1e-05
-0.0107632 0.00102107 1e-05
-0.0105252 0.00102212 1e-05
-0.0102873 0.0010231 1e-05
-0.0100493 0.00102409 1e-05
-0.00981133 0.00102511 1e-05
-0.00957337 0.00102614 1e-05
-0.00934491 0.00102721 1e-05
-0.00911645 0.00102823 1e-05
-0.00888799 0.00102927 1e-05
-0.00865954 0.00103033 1e-05
-0.00843108 0.00103139 1e-05
-0.00821175 0.00103246 1e-05
-0.00799242 0.00103351 1e-05
-0.00777309 0.00103457 1e-05
-0.00755376 0.00103564 1e-05
-0.00733443 0.00103671 1e-05
-0.00719258 0.00103742 1e-05
-0.00705073 0.00103813 1e-05
-0.00690888 0.00103883 1e-05
-0.00676703 0.00103954 1e-05
-0.00662626 0.00104025 1e-05
-0.00655732 0.0010406 1e-05
-0.00648839 0.00104095 1e-05
-0.00641946 0.0010413 1e-05
-0.00635053 0.00104165 1e-05
-0.0062816 0.001042 1e-05
-0.00607944 0.00104303 1e-05
-0.00587729 0.00104406 1e-05
-0.00567514 0.0010451 1e-05
-0.00547298 0.00104614 1e-05
-0.00527083 0.00104718 1e-05
-0.00507675 0.00104818 1e-05
-0.00488267 0.00104919 1e-05
-0.0046886 0.0010502 1e-05
-0.00449452 0.00105121 1e-05
-0.00430044 0.00105222 1e-05
-0.00411412 0.00105318 1e-05
-0.0039278 0.00105415 1e-05
-0.00374147 0.00105513 1e-05
-0.00355515 0.0010561 1e-05
-0.00336883 0.00105707 1e-05
-0.00318995 0.001058 1e-05
-0.00301107 0.00105893 1e-05
-0.00283219 0.00105987 1e-05
-0.00265331 0.0010608 1e-05
-0.00247443 0.00106174 1e-05
-0.0023027 0.00106262 1e-05
-0.00213097 0.00106352 1e-05
-0.00195924 0.00106441 1e-05
-0.0017875 0.00106531 1e-05
-0.00161577 0.0010662 1e-05
-0.0014509 0.00106705 1e-05
-0.00128603 0.0010679 1e-05
-0.00112116 0.00106874 1e-05
-0.000956289 0.00106958 1e-05
-0.000791418 0.00107042 1e-05
-0.000633135 0.00107121 1e-05
-0.000474851 0.00107199 1e-05
-0.000316567 0.00107276 1e-05
-0.000158283 0.00107351 1e-05
0 0.00107424 1e-05
0.000105677 0.00107471 1e-05
0.000211355 0.00107518 1e-05
0.000317032 0.00107564 1e-05
0.00042271 0.00107608 1e-05
0.000528387 0.00107651 1e-05
0.000634886 0.00107692 1e-05
0.000741385 0.00107733 1e-05
0.000847885 0.00107772 1e-05
0.000954384 0.00107811 1e-05
0.00106088 0.00107848 1e-05
0.00116821 0.00107884 1e-05
0.00127554 0.00107919 1e-05
0.00138286 0.00107954 1e-05
0.00149019 0.00107987 1e-05
0.00159752 0.00108019 1e-05
0.00170568 0.00108049 1e-05
0.00181384 0.0010808 1e-05
0.001922 0.00108109 1e-05
0.00203016 0.00108138 1e-05
0.00213833 0.00108165 1e-05
0.00224733 0.00108191 1e-05
0.00235633 0.00108216 1e-05
0.00246533 0.00108242 1e-05
0.00257434 0.00108266 1e-05
0.00268334 0.00108289 1e-05
0.00279319 0.00108311 1e-05
0.00290304 0.00108333 1e-05
0.00301289 0.00108355 1e-05
0.00312274 0.00108376 1e-05
0.00323259 0.00108397 1e-05
0.00334329 0.00108416 1e-05
0.003454 0.00108435 1e-05
0.0035647 0.00108454 1e-05
0.0036754 0.00108472 1e-05
0.00378611 0.0010849 1e-05
0.00389767 0.00108506 1e-05
0.00400924 0.00108523 1e-05
0.0041208 0.0010854 1e-05
0.00423237 0.00108556 1e-05
0.00434393 0.00108571 1e-05
0.00445636 0.00108585 1e-05
0.00456879 0.001086 1e-05
0.00468123 0.00108614 1e-05
0.00479366 0.00108628 1e-05
0.00490609 0.00108641 1e-05
0.0050194 0.00108653 1e-05
0.0051327 0.00108666 1e-05
0.00524601 0.00108678 1e-05
0.00535932 0.00108689 1e-05
0.00547262 0.001087 1e-05
0.00555259 0.00108707 1e-05
0.00563256 0.00108715 1e-05
0.00571252 0.00108722 1e-05
0.00579249 0.00108728 1e-05
0.00586974 0.00108735 1e-05
0.0059045 0.00108737 1e-05
0.00593927 0.0010874 1e-05
0.00597403 0.00108743 1e-05
0.00600879 0.00108745 1e-05
0.00604356 0.00108748 1e-05
0.00615863 0.00108756 1e-05
0.00627371 0.00108764 1e-05
0.00638878 0.00108772 1e-05
0.00650386 0.00108778 1e-05
0.00661893 0.00108785 1e-05
0.0067349 0.00108791 1e-05
0.00685087 0.00108796 1e-05
0.00696684 0.00108801 1e-05
0.00708281 0.00108806 1e-05
0.00719878 0.0010881 1e-05
0.00731565 0.00108813 1e-05
0.00743252 0.00108816 1e-05
0.00754939 0.00108819 1e-05
0.00766626 0.00108821 1e-05
0.00778313 0.00108822 1e-05
0.00790091 0.00108823 1e-05
0.00801869 0.00108823 1e-05
0.00813647 0.00108823 1e-05
0.00825425 0.00108822 1e-05
0.00837203 0.00108821 1e-05
0.00849073 0.00108818 1e-05
0.00860942 0.00108816 1e-05
0.00872812 0.00108813 1e-05
0.00884682 0.00108809 1e-05
0.00896551 0.00108805 1e-05
0.00908513 0.00108799 1e-05
0.00920475 0.00108793 1e-05
0.00932437 0.00108787 1e-05
0.00944398 0.0010878 1e-05
0.0095636 0.00108773 1e-05
0.00968415 0.00108763 1e-05
0.0098047 0.00108754 1e-05
0.00992525 0.00108745 1e-05
0.0100458 0.00108735 1e-05
0.0101663 0.00108724 1e-05
0.0102878 0.00108711 1e-05
0.0104093 0.00108698 1e-05
0.0105308 0.00108685 1e-05
0.0106523 0.00108672 1e-05
0.0107738 0.00108657 1e-05
0.0108962 0.0010864 1e-05
0.0110186 0.00108624 1e-05
0.0111411 0.00108607 1e-05
0.0112635 0.0010859 1e-05
0.0113859 0.00108572 1e-05
0.0115093 0.0010855 1e-05
0.0116327 0.0010853 1e-05
0.0117561 0.00108509 1e-05
0.0118795 0.00108488 1e-05
0.0120028 0.00108466 1e-05
0.0121272 0.0010844 1e-05
0.0122515 0.00108416 1e-05
0.0123759 0.00108391 1e-05
0.0125002 0.00108365 1e-05
0.0126245 0.00108338 1e-05
0.0127498 0.00108308 1e-05
0.0128752 0.0010828 1e-05
0.0130005 0.0010825 1e-05
0.0131258 0.0010822 1e-05
0.0132511 0.00108189 1e-05
0.0133774 0.00108154 1e-05
0.0135036 0.00108121 1e-05
0.0136299 0.00108087 1e-05
0.0137562 0.00108052 1e-05
0.0138825 0.00108016 1e-05
0.0140098 0.00107976 1e-05
0.014137 0.00107938 1e-05
0.0142643 0.00107899 1e-05
0.0143915 0.00107859 1e-05
0.0145188 0.00107818 1e-05
0.0146471 0.00107774 1e-05
0.0147753 0.00107731 1e-05
0.0149036 0.00107686 1e-05
0.0150318 0.00107641 1e-05
0.0151601 0.00107595 1e-05
0.0152893 0.00107546 1e-05
0.0154186 0.00107497 1e-05
0.0155478 0.00107447 1e-05
0.0156771 0.00107397 1e-05
0.0158063 0.00107345 1e-05
0.0159366 0.00107291 1e-05
0.0160668 0.00107237 1e-05
0.0161971 0.00107181 1e-05
0.0163274 0.00107125 1e-05
0.0164576 0.00107068 1e-05
0.0165889 0.00107008 1e-05
0.0167201 0.00106948 1e-05
0.0168514 0.00106887 1e-05
0.0169827 0.00106825 1e-05
0.0171139 0.00106762 1e-05
0.0172462 0.00106697 1e-05
0.0173785 0.00106631 1e-05
0.0175108 0.00106564 1e-05
0.0176431 0.00106496 1e-05
0.0177754 0.00106428 1e-05
0.0179087 0.00106357 1e-05
0.018042 0.00106285 1e-05
0.0181753 0.00106212 1e-05
0.0183087 0.00106138 1e-05
0.018442 0.00106063 1e-05
0.0185763 0.00105987 1e-05
0.0187107 0.00105909 1e-05
0.018845 0.0010583 1e-05
0.0189794 0.0010575 1e-05
0.0191137 0.00105669 1e-05
0.0192491 0.00105586 1e-05
0.0193845 0.00105502 1e-05
0.0195199 0.00105417 1e-05
0.0196553 0.0010533 1e-05
0.0197907 0.00105243 1e-05
0.0199272 0.00105155 1e-05
0.0200636 0.00105065 1e-05
0.0202001 0.00104973 1e-05
0.0203365 0.0010488 1e-05
0.020473 0.00104787 1e-05
0.0206105 0.00104693 1e-05
0.020748 0.00104597 1e-05
0.0208855 0.00104498 1e-05
0.021023 0.00104398 1e-05
0.0211606 0.00104299 1e-05
0.0212991 0.00104199 1e-05
0.0214377 0.00104096 1e-05
0.0215763 0.00103991 1e-05
0.0217149 0.00103884 1e-05
0.0218535 0.00103779 1e-05
0.0219931 0.00103673 1e-05
0.0221328 0.00103564 1e-05
0.0222724 0.00103452 1e-05
0.0224121 0.00103339 1e-05
0.0225517 0.00103227 1e-05
0.0226925 0.00103115 1e-05
0.0228332 0.00102999 1e-05
0.022974 0.00102881 1e-05
0.0231147 0.00102761 1e-05
0.0232555 0.00102643 1e-05
0.0233973 0.00102524 1e-05
0.0235391 0.00102403 1e-05
0.023681 0.00102278 1e-05
0.0238228 0.00102152 1e-05
0.0239647 0.00102027 1e-05
0.0241076 0.00101902 1e-05
0.0242505 0.00101774 1e-05
0.0243935 0.00101642 1e-05
0.0245364 0.00101509 1e-05
0.0246794 0.00101378 1e-05
0.0248234 0.00101247 1e-05
0.0249675 0.00101112 1e-05
0.0251115 0.00100974 1e-05
0.0252556 0.00100835 1e-05
0.0253996 0.00100697 1e-05
0.0255448 0.00100559 1e-05
0.02569 0.00100418 1e-05
0.0258351 0.00100273 1e-05
0.0259803 0.00100127 1e-05
0.0261255 0.000999823 1e-05
0.0262718 0.000998381 1e-05
0.0264181 0.000996902 1e-05
0.0265644 0.000995385 1e-05
0.0267107 0.000993859 1e-05
0.026857 0.000992347 1e-05
0.0270044 0.000990838 1e-05
0.0271519 0.000989292 1e-05
0.0272993 0.000987707 1e-05
0.0274467 0.000986114 1e-05
0.0275942 0.000984534 1e-05
0.0277428 0.000982957 1e-05
0.0278914 0.000981342 1e-05
0.0280399 0.000979693 1e-05
0.0281885 0.000978035 1e-05
0.0283371 0.000976387 1e-05
0.0284869 0.000974741 1e-05
0.0286366 0.000973056 1e-05
0.0287863 0.000971342 1e-05
0.0289361 0.000969618 1e-05
0.0290858 0.0009679 1e-05
0.0292367 0.000966183 1e-05
0.0293876 0.000964428 1e-05
0.0295385 0.000962646 1e-05
0.0296894 0.000960855 1e-05
0.0298403 0.000959066 1e-05
0.0299924 0.000957277 1e-05
0.0301445 0.00095545 1e-05
0.0302966 0.0009536 1e-05
0.0304486 0.000951741 1e-05
0.0306007 0.000949879 1e-05
0.030754 0.000948016 1e-05
0.0309072 0.000946115 1e-05
0.0310605 0.000944195 1e-05
0.0312138 0.000942265 1e-05
0.031367 0.000940329 1e-05
0.0315215 0.00093839 1e-05
0.0316759 0.000936413 1e-05
0.0318304 0.000934422 1e-05
0.0319848 0.000932419 1e-05
0.0321393 0.000930407 1e-05
0.0322949 0.00092839 1e-05
0.0324506 0.000926335 1e-05
0.0326062 0.000924269 1e-05
0.0327619 0.000922192 1e-05
0.0329175 0.000920104 1e-05
0.0330744 0.000918006 1e-05
0.0332313 0.000915875 1e-05
0.0333881 0.000913733 1e-05
[...]
POINT_DATA 11880
 FIELD attributes 1
U 3 11880 float
9.9991 	0.00338334 	0 9.99878 	0.0085722 	0 9.99916 	0.0123325 	0 9.99953 	0.0160831 	0 9.99991 	0.0198239 	0 10.003 	0.0406815 	0 10.0034 	0.0140572 	0 10.0062 	0.0131912 	0 10.009 	0.0123215 	0 10.0118 	0.0114481 	0 10.0151 	0.031207 	0 10.0176 	0.00791643 	0 10.0202 	0.00839022 	0 10.0228 	0.00886719 	0 10.0253 	0.00934737 	0 10.0255 	0.0285346 	0 10.0288 	0.0116138 	0 10.0301 	0.0132612 	0 10.0315 	0.0149193 	0 10.0329 	0.016588 	0 10.0304 	0.032806 	0 10.0348 	0.0205509 	0 10.0357 	0.0221536 	0 10.0365 	0.0237654 	0 10.0374 	0.0253862 	0 10.0331 	0.037606 	0 10.0383 	0.0290377 	0 10.0388 	0.0303207 	0 10.0393 	0.0316097 	0 10.0397 	0.032905 	0 10.0344 	0.0414951 	0 10.0399 	0.0358663 	0 10.04 	0.036869 	0 10.0401 	0.0378757 	0 10.0402 	0.0388864 	0 10.0347 	0.0445849 	0 10.0397 	0.0411622 	0 10.0396 	0.0419309 	0 10.0394 	0.042702 	0 10.0393 	0.0434756 	0 10.0342 	0.0469941 	0 10.0384 	0.0451404 	0 10.0381 	0.0457119 	0 10.0377 	0.0462849 	0 10.0374 	0.0468594 	0 10.0336 	0.0488003 	0 10.0363 	0.0480144 	0 10.0359 	0.0484246 	0 10.0354 	0.0488356 	0 10.0349 	0.0492475 	0 10.0329 	0.0500919 	0 10.034 	0.0499057 	0 10.0336 	0.050095 	0 10.0332 	0.0502844 	0 10.0329 	0.0504741 	0 10.0325 	0.0506626 	0 10.0323 	0.050753 	0 10.0321 	0.0508434 	0 10.0319 	0.0509339 	0 10.0317 	0.0510244 	0 10.0314 	0.0510176 	0 10.031 	0.051267 	0 10.0303 	0.0514406 	0 10.0297 	0.0516144 	0 10.029 	0.0517884 	0 10.0279 	0.0516353 	0 10.0279 	0.0519866 	0 10.0272 	0.0520806 	0 10.0266 	0.0521748 	0 10.0259 	0.052269 	0 10.0242 	0.0518834 	0 10.0248 	0.0522987 	0 10.0242 	0.0523343 	0 10.0235 	0.0523701 	0 10.0228 	0.0524058 	0 10.0205 	0.0518662 	0 10.0219 	0.0523249 	0 10.0213 	0.0523282 	0 10.0206 	0.0523314 	0 10.02 	0.0523347 	0 10.0171 	0.0517063 	0 10.0194 	0.0521831 	0 10.0189 	0.052163 	0 10.0184 	0.0521428 	0 10.0179 	0.0521226 	0 10.0145 	0.0514328 	0 10.0179 	0.0517131 	0 10.0177 	0.0514238 	0 10.0174 	0.0511344 	0 10.0172 	0.0508448 	0 10.0132 	0.0498321 	0 10.0179 	0.0495059 	0 10.018 	0.0484807 	0 10.0182 	0.047455 	0 10.0183 	0.0464289 	0 10.0138 	0.044755 	0 10.0189 	0.0444231 	-2.48831e-21 10.0187 	0.0431403 	-6.64937e-21 10.0185 	0.0418571 	-1.08111e-20 10.0183 	0.0405734 	-1.49735e-20 10.0133 	0.0386184 	-1.94214e-20 10.0179 	0.0385839 	-3.01106e-20 10.0174 	0.0374232 	-2.99979e-20 10.0169 	0.0362619 	-2.98815e-20 10.0163 	0.0351 	-2.97614e-20 10.0112 	0.0330633 	-1.83834e-20 10.0155 	0.0332808 	-1.9592e-20 10.0147 	0.0321782 	-2.21839e-20 10.014 	0.0310748 	-2.47773e-20 10.0133 	0.0299707 	-2.73723e-20 10.0083 	0.0277954 	-3.04303e-20 10.012 	0.0282168 	-3.9768e-20 10.0111 	0.027264 	-3.96536e-20 10.0102 	0.0263105 	-3.95367e-20 10.0093 	0.0253562 	-3.94174e-20 10.0044 	0.0232382 	-3.18305e-20 10.0075 	0.023805 	-2.31616e-20 10.0063 	0.0230728 	-1.3978e-20 10.0051 	0.0223399 	-4.79487e-21 10.0039 	0.0216064 	4.38791e-21 9.99918 	0.0197417 	1.36289e-20 10.0016 	0.0203068 	8.82212e-21 10.0002 	0.0197398 	5.53681e-21 9.99876 	0.0191723 	2.25163e-21 9.99732 	0.0186043 	-1.03343e-21 9.9928 	0.0170525 	-1.46731e-21 9.99451 	0.0174883 	3.75239e-21 9.99283 	0.0170148 	4.34921e-21 9.99116 	0.0165409 	4.94395e-21 9.98947 	0.0160665 	5.53659e-21 9.98524 	0.0148266 	7.67399e-22 9.98614 	0.015072 	1.3746e-20 9.98419 	0.0146483 	1.65267e-20 9.98224 	0.0142243 	1.93039e-20 9.98029 	0.0138 	2.20777e-20 9.97637 	0.0128499 	1.5471e-20 9.97636 	0.0128919 	1.32131e-20 9.97411 	0.0124916 	9.84262e-21 9.97187 	0.0120911 	6.4723e-21 9.96962 	0.0116903 	3.10216e-21 9.96605 	0.0109895 	-5.5009e-22 9.965 	0.010841 	4.56503e-21 9.96243 	0.0104459 	9.51573e-21 9.95985 	0.0100505 	1.44667e-20 9.95728 	0.0096549 	1.94179e-20 9.95412 	0.00915054 	2.42549e-20 9.95275 	0.00895818 	2.09735e-20 9.9507 	0.00867709 	1.75809e-20 9.94865 	0.00839589 	1.41884e-20 9.9466 	0.00811459 	1.07961e-20 9.94461 	0.00784275 	7.51916e-21 9.94371 	0.00771943 	6.13885e-21 9.9428 	0.00759609 	4.75873e-21 9.9419 	0.00747272 	3.37879e-21 9.94099 	0.00734934 	1.99904e-21 9.93854 	0.00722034 	7.36728e-23 9.93668 	0.00681755 	-5.73581e-21 9.93333 	0.00640117 	-1.10042e-20 9.92998 	0.00598459 	-1.62746e-20 9.92662 	0.00556779 	-2.15471e-20 9.91628 	0.00505646 	-2.44503e-20 9.91921 	0.0047434 	-1.46826e-20 9.91545 	0.00431167 	-4.91361e-21 9.91168 	0.00387974 	4.85538e-21 9.90791 	0.00344762 	1.46244e-20 9.89125 	0.00274685 	2.3666e-20 9.89936 	0.00259097 	3.18945e-20 9.89516 	0.00214151 	3.63058e-20 9.89095 	0.00169185 	4.07188e-20 9.88674 	0.001242 	4.51334e-20 9.86339 	0.000293871 	4.27177e-20 9.87695 	0.000334795 	3.76616e-20 9.87228 	-0.000133072 	3.2651e-20 9.86762 	-0.000601139 	2.76395e-20 9.86295 	-0.0010694 	2.26271e-20 9.83268 	-0.00229272 	1.97656e-20 9.8518 	-0.00203977 	9.95091e-21 9.84667 	-0.00252534 	-1.6452e-21 9.84153 	-0.00301112 	-1.32411e-20 9.83638 	-0.00349712 	-2.48367e-20 9.79913 	-0.00499732 	-3.20438e-20 9.82381 	-0.00453808 	-2.08646e-20 9.81819 	-0.00504032 	-2.02575e-20 9.81256 	-0.0055428 	-1.96464e-20 9.80693 	-0.00604551 	-1.90313e-20 9.7628 	-0.0078036 	-3.22607e-20 9.79287 	-0.00716054 	-2.73852e-20 9.78676 	-0.00767853 	-1.97353e-20 9.78065 	-0.00819679 	-1.20848e-20 9.77453 	-0.00871531 	-4.43374e-21 9.72378 	-0.0106965 	0 9.75894 	-0.00990446 	-2.30703e-21 9.75235 	-0.0104375 	-6.36149e-21 9.74575 	-0.0109708 	-1.04156e-20 9.73915 	-0.0115044 	-1.44694e-20 9.68222 	-0.0136627 	-1.44183e-20 9.72202 	-0.0127647 	-1.64716e-20 9.71496 	-0.0133123 	-1.63799e-20 9.70788 	-0.0138601 	-1.62875e-20 9.7008 	-0.0144084 	-1.61945e-20 9.63828 	-0.01669 	-1.52148e-20 9.68216 	-0.0157345 	-1.41568e-20 9.67463 	-0.0162962 	-9.96483e-21 9.66709 	-0.0168584 	-5.77249e-21 9.65955 	-0.0174209 	-1.57978e-21 9.59213 	-0.0197679 	-1.75869e-21 9.63945 	-0.0188057 	-2.65739e-21 9.63147 	-0.0193814 	-1.00526e-20 9.62348 	-0.0199577 	-1.7447e-20 9.61548 	-0.0205344 	-2.48408e-20 9.54398 	-0.022887 	-2.70277e-20 9.594 	-0.0219692 	3.09289e-22 9.5856 	-0.022559 	1.06684e-21 9.57719 	-0.0231492 	1.82945e-21 9.56876 	-0.0237399 	2.59713e-21 9.49403 	-0.0260385 	-2.61582e-20 9.546 	-0.0252156 	-2.42758e-20 9.5372 	-0.0258191 	-1.65768e-20 9.52837 	-0.0264232 	-8.8771e-21 9.51954 	-0.0270279 	-1.17663e-21 9.4425 	-0.0292143 	0 9.49565 	-0.0285345 	0 9.48646 	-0.0291516 	0 9.47725 	-0.0297693 	0 9.46804 	-0.0303877 	0 9.38961 	-0.0324067 	0 9.44316 	-0.0319152 	3.39847e-22 9.43361 	-0.0325455 	8.30759e-21 9.42406 	-0.0331765 	1.62745e-20 9.41383 	-0.0338192 	2.42407e-20 9.33556 	-0.035608 	3.22274e-20 9.38614 	-0.0353846 	2.39907e-20 9.37891 	-0.0359896 	3.09913e-20 9.36903 	-0.0366333 	3.86884e-20 9.35318 	-0.0373546 	4.69189e-20 9.28055 	-0.0388111 	6.02671e-20 9.32544 	-0.0388935 	4.63062e-20 9.32262 	-0.0394719 	3.70164e-20 9.31243 	-0.0401274 	2.84441e-20 9.29183 	-0.0408713 	2.24176e-20 9.22479 	-0.0420081 	2.77744e-20 9.26418 	-0.0423805 	2.2051e-20 9.265 	-0.0429795 	1.17037e-20 9.25453 	-0.0436454 	2.60046e-24 9.23005 	-0.0443574 	-8.85997e-21 9.16845 	-0.0451903 	-1.01972e-20 9.20259 	-0.0458335 	2.79293e-20 9.20634 	-0.0464978 	4.07959e-20 9.19562 	-0.0471726 	4.16381e-20 9.1681 	-0.047801 	2.81932e-20 9.11173 	-0.0483489 	-9.80824e-21 9.14092 	-0.0492418 	-8.24163e-21 9.14691 	-0.0500129 	-5.50729e-21 9.13596 	-0.0506954 	-1.92013e-21 9.10621 	-0.0511933 	0 9.05479 	-0.0514782 	0 9.07938 	-0.0525987 	0 9.08698 	-0.0535144 	0 9.07583 	-0.0542035 	0 9.04456 	-0.0545293 	0 8.99778 	-0.054575 	0 9.01814 	-0.0558997 	0 9.0268 	-0.0569925 	0 9.01547 	-0.0576869 	0 8.98335 	-0.0578049 	0 8.94086 	-0.0576355 	0 8.95737 	-0.0591401 	0 8.96659 	-0.0604366 	1.35894e-21 8.95511 	-0.0611349 	6.60297e-21 8.92269 	-0.0610155 	1.84938e-20 8.88414 	-0.0606561 	3.23342e-20 8.89718 	-0.0623158 	1.24892e-19 8.90658 	-0.0638367 	2.03636e-19 8.89497 	-0.0645374 	2.01568e-19 8.86273 	-0.0641581 	1.18369e-19 8.82774 	-0.0636339 	2.43109e-20 8.83769 	-0.065424 	-2.28516e-20 8.84693 	-0.0671839 	-6.88039e-20 8.83522 	-0.0678859 	-7.49185e-20 8.80355 	-0.067231 	-4.13515e-20 8.77178 	-0.066567 	-7.53233e-21 8.77899 	-0.0684638 	-5.67477e-21 8.78612 	-0.0703626 	-3.8148e-21 8.77418 	-0.0710129 	6.73598e-21 8.74526 	-0.0702342 	1.20517e-20 8.71636 	-0.0694549 	1.73685e-20 8.72116 	-0.0714356 	1.15756e-20 8.72588 	-0.0734183 	5.7791e-21 8.71429 	-0.0740394 	1.46579e-20 8.68791 	-0.0731692 	3.95635e-20 8.66156 	-0.0722983 	6.44703e-20 8.66426 	-0.0743415 	1.07999e-19 8.66689 	-0.0763868 	1.51524e-19 8.65569 	-0.0769785 	1.41344e-19 8.63157 	-0.0760393 	8.20712e-20 8.60747 	-0.0750993 	2.27966e-20 8.60835 	-0.0771852 	1.35886e-20 8.60915 	-0.0792733 	4.38358e-21 8.5984 	-0.0798361 	-5.16781e-21 8.57626 	-0.078849 	-1.52056e-20 8.55414 	-0.0778611 	-2.52443e-20 8.55346 	-0.079972 	-1.49316e-20 8.55269 	-0.0820851 	-4.61666e-21 8.54243 	-0.0826199 	2.99752e-21 8.52202 	-0.0816043 	1.05673e-20 8.50164 	-0.0805879 	1.81385e-20 8.49961 	-0.0827082 	1.01668e-20 8.4975 	-0.0848306 	2.19198e-21 8.48775 	-0.0853387 	7.10677e-21 8.46886 	-0.0843124 	1.47363e-20 8.45 	-0.0832852 	2.23638e-20 8.44681 	-0.0854012 	4.87189e-20 8.44355 	-0.0875193 	7.508e-20 8.43434 	-0.0880025 	7.27036e-20 8.41678 	-0.0869811 	3.71759e-20 8.39925 	-0.0859589 	1.64419e-21 8.39509 	-0.0880592 	5.04391e-21 8.39084 	-0.0901616 	8.45198e-21 8.38201 	-0.0905902 	-1.01463e-20 8.36579 	-0.0896187 	-2.52439e-20 8.34943 	-0.088615 	-4.02577e-20 8.34442 	-0.0906903 	-1.24229e-19 8.33887 	-0.0925518 	-1.96429e-19 8.33014 	-0.0929721 	-1.89903e-19 8.31589 	-0.0922331 	-1.15418e-19 8.30055 	-0.0912592 	-2.71979e-20 8.29482 	-0.0933023 	-1.67113e-20 8.28828 	-0.094909 	-6.97207e-21 8.27966 	-0.0953352 	7.52315e-22 8.26706 	-0.0948329 	1.23114e-20 8.25262 	-0.0938985 	2.56539e-20 8.24628 	-0.0959043 	4.41905e-20 8.23902 	-0.0972607 	5.13249e-20 8.23052 	-0.0976947 	4.22914e-20 8.21928 	-0.0974286 	2.33044e-20 8.20564 	-0.0965418 	-4.49644e-21 8.19877 	-0.0985074 	-7.42568e-20 8.19104 	-0.0996221 	-1.05269e-19 8.18263 	-0.100066 	-1.05747e-19 8.17252 	-0.100032 	-8.5268e-20 8.15959 	-0.0991987 	-2.97997e-20 8.15227 	-0.101123 	-2.16509e-20 8.14425 	-0.102007 	-2.10039e-20 8.13594 	-0.102462 	-2.34546e-20 8.12675 	-0.102653 	-2.7666e-20 8.11445 	-0.101878 	-3.82818e-20 8.10674 	-0.10376 	-9.11873e-20 8.0986 	-0.104427 	-9.57107e-20 8.09037 	-0.104895 	-9.22936e-20 8.08194 	-0.105301 	-8.61656e-20 8.0702 	-0.104587 	-3.16611e-20 8.06215 	-0.10641 	-2.36941e-20 8.05402 	-0.106892 	-1.60818e-20 8.04587 	-0.107375 	-8.47053e-21 8.0377 	-0.107857 	-8.60222e-22 8.02681 	-0.107334 	6.31345e-21 8.01852 	-0.108914 	-3.66113e-22 8.01046 	-0.109412 	-2.51965e-21 8.00239 	-0.10991 	-4.67345e-21 7.99429 	-0.110409 	-6.82752e-21 7.98426 	-0.110128 	3.89771e-21 7.97587 	-0.111481 	1.58572e-20 7.96788 	-0.111996 	2.46181e-20 7.95986 	-0.112511 	3.33756e-20 7.95183 	-0.113026 	4.21297e-20 7.94251 	-0.112975 	3.76532e-20 7.93413 	-0.114117 	4.60503e-20 7.9262 	-0.11465 	4.77156e-20 7.91824 	-0.115183 	4.9379e-20 7.91026 	-0.115717 	5.10407e-20 7.90152 	-0.115885 	4.08465e-20 7.89326 	-0.116831 	3.5388e-20 7.88538 	-0.117383 	2.61063e-20 7.87747 	-0.117936 	1.68261e-20 7.86953 	-0.118489 	7.54719e-21 7.86125 	-0.118864 	-1.30542e-21 7.8532 	-0.119628 	0 7.84535 	-0.120201 	0 7.83748 	-0.120774 	0 7.82959 	-0.121347 	0 7.82167 	-0.12192 	0 7.8216 	-0.121927 	2.84972e-23 7.82153 	-0.121932 	6.3017e-23 7.82146 	-0.121937 	9.75368e-23 7.82139 	-0.121943 	1.32057e-22 7.82132 	-0.121948 	1.66562e-22 7.81325 	-0.12254 	3.70962e-21 7.80515 	-0.123132 	7.25206e-21 7.79703 	-0.123725 	1.07939e-20 7.78888 	-0.124318 	1.43351e-20 7.78193 	-0.124745 	1.78567e-20 7.77318 	-0.125518 	2.37527e-20 7.76504 	-0.126138 	2.46432e-20 7.75687 	-0.126759 	2.55376e-20 7.74867 	-0.12738 	2.64359e-20 7.74289 	-0.127672 	1.71293e-20 7.73352 	-0.128617 	1.12348e-20 7.7254 	-0.129262 	3.87889e-21 7.71725 	-0.129906 	-3.477e-21 7.70907 	-0.130551 	-1.08329e-20 7.70449 	-0.130711 	-1.5926e-20 7.69452 	-0.131825 	-3.06138e-20 7.6864 	-0.132495 	-2.82442e-20 7.67826 	-0.133165 	-2.58795e-20 7.6701 	-0.133835 	-2.35196e-20 7.66669 	-0.13387 	-7.32805e-22 7.6561 	-0.135149 	-2.41116e-20 7.648 	-0.135845 	-2.18061e-20 7.63986 	-0.136542 	-1.95072e-20 7.6317 	-0.137239 	-1.72146e-20 7.62943 	-0.137155 	1.38967e-20 7.6184 	-0.138557 	1.02181e-20 7.61013 	-0.139318 	4.10544e-22 7.60199 	-0.140043 	-9.75405e-21 7.59487 	-0.14063 	-1.92864e-20 7.59266 	-0.140571 	-2.58558e-20 7.58169 	-0.141983 	-1.87205e-20 7.57276 	-0.142921 	-1.62965e-20 7.56461 	-0.143674 	-1.57161e-20 7.55868 	-0.144133 	-1.79011e-20 7.55635 	-0.144124 	-2.45048e-20 7.54542 	-0.145546 	-1.73158e-20 7.53583 	-0.146657 	-8.53745e-21 7.52766 	-0.147439 	1.91548e-21 7.5229 	-0.147777 	8.02031e-21 7.52043 	-0.147817 	1.12095e-20 7.50954 	-0.149252 	3.47824e-20 7.4993 	-0.150532 	5.27234e-20 7.4911 	-0.151344 	5.37018e-20 7.48747 	-0.151566 	3.43615e-20 7.48487 	-0.151655 	1.04498e-20 7.47401 	-0.153103 	6.9413e-21 7.46312 	-0.154549 	3.3789e-21 7.4551 	-0.155365 	-9.65982e-21 7.45236 	-0.155504 	-2.5813e-20 7.44961 	-0.155643 	-4.19666e-20 7.43878 	-0.157106 	-1.04181e-19 7.42789 	-0.15857 	-1.66394e-19 7.42041 	-0.159408 	-1.66469e-19 7.41752 	-0.159596 	-1.0389e-19 7.41463 	-0.159785 	-4.13082e-20 7.40382 	-0.161266 	-2.48019e-20 7.39294 	-0.162747 	-8.29423e-21 7.38596 	-0.16361 	-1.50742e-21 7.38293 	-0.16385 	-4.52668e-21 7.37988 	-0.164089 	-7.54581e-21 7.36908 	-0.165588 	-2.97749e-20 7.35821 	-0.167088 	-5.20024e-20 7.35171 	-0.167978 	-5.19268e-20 7.34852 	-0.168268 	-2.93459e-20 7.34532 	-0.168557 	-6.76371e-21 7.33451 	-0.170077 	-3.40954e-21 7.32364 	-0.171597 	-5.39096e-23 7.31769 	-0.172497 	6.72872e-25 7.31426 	-0.172855 	0 7.3109 	-0.173195 	0 7.30009 	-0.174736 	0 7.29034 	-0.176137 	3.05286e-24 7.28439 	-0.17706 	1.65833e-23 7.28013 	-0.177614 	-1.9789e-21 7.2766 	-0.178005 	-4.86517e-21 7.26577 	-0.179569 	-2.60705e-20 7.25722 	-0.180843 	-3.65013e-20 7.25117 	-0.181803 	-3.52246e-20 7.24608 	-0.182552 	-2.44901e-20 7.24238 	-0.182994 	-7.91883e-23 7.23152 	-0.184582 	2.40154e-20 7.22415 	-0.185735 	2.93503e-20 7.218 	-0.186733 	2.80414e-20 7.21207 	-0.187673 	2.37563e-20 7.2082 	-0.188168 	-3.0701e-21 7.19733 	-0.189781 	-1.96944e-24 7.1911 	-0.190819 	-1.35079e-24 7.18482 	-0.191857 	-7.32345e-25 7.17851 	-0.192896 	-1.14114e-25 7.17403 	-0.193534 	-4.58696e-21 7.16438 	-0.195023 	0 7.15803 	-0.196103 	0 7.15163 	-0.197182 	0 7.1452 	-0.198262 	0 7.13985 	-0.199101 	2.73191e-21 7.13139 	-0.200471 	-3.24866e-21 7.12491 	-0.201593 	-9.13146e-21 7.11839 	-0.202716 	-1.50162e-20 7.11183 	-0.203839 	-2.09029e-20 7.10563 	-0.204875 	-2.57688e-20 7.10116 	-0.205628 	-3.24321e-20 7.09741 	-0.206293 	-3.12723e-20 7.09364 	-0.206957 	-3.01086e-20 7.08986 	-0.207621 	-2.89408e-20 7.0862 	-0.208262 	-2.78109e-20 7.08314 	-0.208769 	-2.75014e-20 7.08006 	-0.209276 	-2.7191e-20 7.07698 	-0.209782 	-2.68798e-20 7.07388 	-0.210289 	-2.65678e-20 7.07087 	-0.210732 	-2.74442e-20 7.06399 	-0.212006 	-2.56577e-20 7.05688 	-0.213217 	-2.11551e-20 7.04972 	-0.214429 	-1.66592e-20 7.04251 	-0.215641 	-1.217e-20 7.03557 	-0.216644 	-6.71001e-24 7.02894 	-0.218106 	2.46367e-21 7.02168 	-0.219367 	7.33042e-21 7.01437 	-0.220627 	1.21949e-20 7.00701 	-0.221888 	1.7057e-20 7.00012 	-0.222797 	2.60753e-20 6.99374 	-0.224448 	1.74823e-20 6.98632 	-0.22576 	2.15705e-20 6.97886 	-0.227072 	2.56515e-20 6.97141 	-0.22834 	3.02712e-20 6.96449 	-0.229204 	3.99254e-20 6.95807 	-0.230944 	8.30486e-21 6.95079 	-0.232409 	-5.94042e-21 6.94316 	-0.233775 	-1.39069e-20 6.93575 	-0.23495 	-8.5497e-21 6.92864 	-0.235875 	1.41987e-20 6.92205 	-0.237662 	3.09781e-20 6.91503 	-0.239326 	4.07027e-20 6.90722 	-0.240748 	3.66281e-20 6.89984 	-0.241833 	2.01647e-20 6.89255 	-0.242822 	1.69814e-22 6.88577 	-0.244659 	7.27461e-23 6.87892 	-0.246496 	-2.42065e-23 6.87109 	-0.247946 	4.14393e-21 6.86365 	-0.249001 	8.62348e-21 6.85616 	-0.250056 	1.31015e-20 6.84919 	-0.251945 	7.87974e-21 6.84215 	-0.253834 	2.65487e-21 6.83478 	-0.255341 	3.50109e-21 6.82713 	-0.256464 	1.05088e-20 6.81943 	-0.257586 	1.75161e-20 6.81226 	-0.259529 	2.89081e-20 6.80501 	-0.261472 	4.02982e-20 6.79811 	-0.263039 	4.0143e-20 6.79024 	-0.264231 	2.81115e-20 6.78232 	-0.265422 	1.60776e-20 6.77494 	-0.267422 	8.93153e-21 6.76761 	-0.269322 	2.97863e-21 6.76063 	-0.27092 	6.63107e-22 6.75293 	-0.272311 	4.89352e-21 6.74478 	-0.273572 	1.32151e-20 6.73718 	-0.27563 	-1.46255e-20 6.72983 	-0.277435 	-2.21946e-20 6.7226 	-0.279097 	-1.83074e-20 6.71516 	-0.280711 	-1.08428e-20 6.70677 	-0.282044 	1.75645e-20 6.69895 	-0.284145 	2.29896e-20 6.69154 	-0.285873 	1.96414e-20 6.68406 	-0.287601 	1.62835e-20 6.67651 	-0.289328 	1.29159e-20 6.66822 	-0.290843 	2.95254e-21 6.66036 	-0.292847 	-9.44418e-21 6.65268 	-0.294641 	-1.0295e-20 6.64494 	-0.296435 	-1.11359e-20 6.63713 	-0.298228 	-1.19668e-20 6.62909 	-0.299974 	-1.10243e-20 6.62677 	-0.300556 	-1.02437e-20 6.6245 	-0.301091 	-1.02858e-20 6.62222 	-0.301626 	-1.03282e-20 6.61994 	-0.302161 	-1.03708e-20 6.6177 	-0.302685 	-1.04127e-20 6.6126 	-0.304014 	-9.99428e-21 6.60745 	-0.305343 	-9.57456e-21 6.60228 	-0.306672 	-9.15355e-21 6.59707 	-0.308 	-8.73124e-21 6.59169 	-0.309206 	-1.02006e-20 6.58496 	-0.311259 	-1.18778e-20 6.57757 	-0.313189 	-9.43078e-21 6.57011 	-0.315119 	-6.99388e-21 6.56258 	-0.317048 	-4.56715e-21 6.55463 	-0.318683 	8.10961e-21 6.54847 	-0.320977 	1.95992e-20 6.5408 	-0.322975 	2.40414e-20 6.53306 	-0.324972 	2.84886e-20 6.52519 	-0.326921 	3.13163e-20 6.51679 	-0.328502 	2.15807e-20 6.51062 	-0.330916 	2.98517e-20 6.50325 	-0.333101 	3.17359e-20 6.49522 	-0.335166 	3.02617e-20 6.48683 	-0.337008 	2.34667e-20 6.47813 	-0.338664 	1.22604e-20 6.47164 	-0.341138 	8.16959e-21 6.46487 	-0.343571 	4.46231e-21 6.45653 	-0.345704 	3.62432e-21 6.44759 	-0.34744 	6.88639e-21 6.43857 	-0.349172 	1.01802e-20 6.43175 	-0.351707 	1.99156e-20 6.42485 	-0.35424 	2.96477e-20 6.41669 	-0.356411 	2.92627e-20 6.40741 	-0.358219 	1.86871e-20 6.39805 	-0.360026 	8.10688e-21 6.3909 	-0.362622 	4.23183e-21 6.38365 	-0.365217 	3.53837e-22 6.37581 	-0.367456 	1.42069e-24 6.36622 	-0.369347 	1.52839e-21 6.35652 	-0.371229 	3.09519e-21 6.34901 	-0.373887 	1.14943e-21 6.34117 	-0.376389 	-1.36971e-21 6.33291 	-0.378666 	-4.71515e-21 6.32396 	-0.380826 	-7.53721e-21 6.31389 	-0.382783 	-9.44965e-21 6.30601 	-0.385503 	-8.59421e-21 6.2975 	-0.387883 	-9.15556e-21 6.28885 	-0.390229 	-9.86097e-21 6.28011 	-0.392573 	-1.05717e-20 6.2701 	-0.394691 	-1.21832e-20 6.26157 	-0.397317 	-1.05575e-20 6.25261 	-0.399733 	-7.87593e-21 6.24355 	-0.402147 	-5.1972e-21 6.2344 	-0.404559 	-2.52135e-21 6.22506 	-0.406953 	0 6.22432 	-0.407174 	0 6.22356 	-0.407379 	0 6.22279 	-0.407584 	0 6.22202 	-0.407789 	0 6.22125 	-0.407993 	0 6.21305 	-0.410271 	0 6.20478 	-0.412549 	0 6.19642 	-0.414825 	0 6.18799 	-0.4171 	0 6.17987 	-0.419209 	0 6.17083 	-0.421941 	0 6.16141 	-0.424491 	0 6.15189 	-0.42704 	0 6.1423 	-0.429577 	-1.62487e-22 6.13334 	-0.43179 	-5.81131e-21 6.12406 	-0.434695 	-1.41478e-21 6.11434 	-0.437404 	3.17213e-23 6.10437 	-0.440019 	7.84646e-23 6.09471 	-0.44244 	-4.05416e-21 6.08524 	-0.444725 	-1.11183e-20 6.07552 	-0.447692 	-1.553e-20 6.06568 	-0.450655 	-1.99487e-20 6.05537 	-0.453301 	-1.98714e-20 6.04547 	-0.455658 	-1.13867e-20 6.03546 	-0.458015 	-2.8999e-21 6.02527 	-0.461041 	-1.8915e-21 6.01497 	-0.464065 	-8.84671e-22 6.00492 	-0.466804 	1.51873e-21 5.99446 	-0.46923 	1.9259e-21 5.9839 	-0.471655 	2.33779e-21 5.97322 	-0.474739 	2.96405e-21 5.96263 	-0.477706 	1.84694e-21 5.95226 	-0.480476 	-2.23603e-21 5.94159 	-0.483149 	-6.31959e-21 5.93045 	-0.485641 	-1.04069e-20 5.91925 	-0.488781 	-6.01139e-21 5.90843 	-0.491613 	-9.31448e-21 5.89749 	-0.494443 	-1.2625e-20 5.88643 	-0.497269 	-1.5943e-20 5.87499 	-0.499966 	-2.17151e-20 5.86882 	-0.50161 	-2.78833e-20 5.86277 	-0.503147 	-2.12278e-20 5.85669 	-0.504683 	-1.45614e-20 5.85058 	-0.506218 	-7.88409e-21 5.84471 	-0.507686 	-1.48866e-21 5.83943 	-0.509051 	4.43947e-21 5.83414 	-0.510416 	1.03761e-20 5.82881 	-0.51178 	1.