/*--------------------------------*- C++ -*----------------------------------*\
| =========                 |                                                 |
| \\      /  F ield         | OpenFOAM: The Open Source CFD Toolbox           |
|  \\    /   O peration     | Version:  2.2.x                                 |
|   \\  /    A nd           | Web:      www.OpenFOAM.org                      |
|    \\/     M anipulation  |                                                 |
\*---------------------------------------------------------------------------*/
FoamFile
{
    version     2.0;
    format      ascii;
    class       volScalarField;
    location    "100";
    object      epsilon;
}
// * * * * * * * * * * * * * * * * * * * * * * * * * * * * * * * * * * * * * //

dimensions      [0 2 -3 0 0 0 0];

internalField   nonuniform List<scalar> 
12225
(
1739.1
3020.38
4029.57
4713.25
5129.45
5353.53
5449.12
5462.85
5426.49
5360.78
5278.91
5189.05
5096.17
5003.16
4911.5
4821.69
4732.38
4648.33
187.478
345.493
472.086
572.946
645.81
694.206
724.337
741.962
751.519
756.168
758.059
758.614
758.767
759.152
760.292
762.995
770.13
784.928
41.8512
72.546
98.6931
120.898
139.03
153.183
163.855
171.686
177.305
181.275
184.067
186.066
187.581
188.87
190.167
191.754
194.067
197.485
20.3619
27.9952
35.5054
42.3952
48.4849
53.7104
58.101
61.735
64.7095
67.1266
69.0856
70.6789
71.9916
73.1025
74.0893
75.037
76.0458
77.1943
16.057
18.2181
20.6875
23.176
25.5426
27.715
29.6652
31.3906
32.9025
34.219
35.362
36.3549
37.2213
37.9855
38.6724
39.3089
39.9238
40.5334
15.0135
15.5472
16.3175
17.2061
18.1335
19.0484
19.921
20.7355
21.4854
22.1694
22.7902
23.3523
23.8619
24.3261
24.7531
25.1519
25.5319
25.8952
14.7585
14.7819
14.9227
15.1531
15.4431
15.7672
16.1059
16.4455
16.7771
17.0953
17.3971
17.6813
17.9483
18.1991
18.4358
18.661
18.8778
19.0845
14.7065
14.6001
14.5501
14.5536
14.6018
14.6843
14.791
14.9133
15.0446
15.18
15.316
15.4503
15.5817
15.7095
15.8339
15.9553
16.0746
16.1896
14.6925
14.5449
14.4248
14.3341
14.2719
14.2351
14.2198
14.2219
14.2374
14.2631
14.2962
14.3348
14.3772
14.4223
14.4696
14.5188
14.5697
14.6204
14.6884
14.5276
14.3815
14.2515
14.138
14.0408
13.9588
13.8907
13.8348
13.7896
13.7535
13.7252
13.7036
13.6877
13.677
13.6707
13.6687
13.6696
14.6873
14.5229
14.369
14.2258
14.0933
13.9714
13.8598
13.7582
13.6659
13.5823
13.5068
13.4387
13.3774
13.3223
13.273
13.2291
13.1903
13.156
14.687
14.5217
14.3659
14.2191
14.0811
13.9513
13.8295
13.7153
13.6085
13.5086
13.4153
13.3283
13.2472
13.1718
13.1017
13.0367
12.9765
12.9213
14.6868
14.5213
14.365
14.2175
14.0781
13.9464
13.8219
13.7043
13.5931
13.488
13.3887
13.2949
13.2063
13.1228
13.0441
12.97
12.9003
12.8354
14.6866
14.521
14.3647
14.217
14.0773
13.9453
13.8202
13.7018
13.5897
13.4834
13.3826
13.2871
13.1966
13.1108
13.0295
12.9526
12.8798
12.8116
14.6865
14.5208
14.3644
14.2167
14.077
13.9448
13.8197
13.7013
13.589
13.4825
13.3816
13.2859
13.195
13.1089
13.0271
12.9496
12.8761
12.8071
14.6864
14.5207
14.3643
14.2165
14.0767
13.9446
13.8195
13.7011
13.5888
13.4824
13.3816
13.2859
13.1951
13.109
13.0273
12.9497
12.8761
12.807
14.6863
14.5206
14.3641
14.2163
14.0766
13.9445
13.8194
13.701
13.5889
13.4826
13.3818
13.2862
13.1955
13.1095
13.0278
12.9503
12.8768
12.8077
14.6863
14.5205
14.3641
14.2162
14.0766
13.9445
13.8195
13.7011
13.5891
13.4829
13.3822
13.2867
13.1961
13.1102
13.0286
12.9511
12.8776
12.8085
14.6863
14.5205
14.364
14.2163
14.0766
13.9446
13.8197
13.7014
13.5894
13.4833
13.3827
13.2874
13.1969
13.111
13.0295
12.952
12.8785
12.8094
14.6863
14.5205
14.3641
14.2164
14.0768
13.9449
13.8201
13.7019
13.5901
13.4841
13.3837
13.2885
13.1982
13.1125
13.0311
12.9539
12.8806
12.8117
14.6863
14.5206
14.3643
14.2167
14.0773
13.9456
13.8211
13.7034
13.592
13.4867
13.387
13.2927
13.2033
13.1187
13.0385
12.9625
12.8905
12.8229
14.6864
14.5209
14.3649
14.2179
14.0796
13.9494
13.8269
13.7118
13.6037
13.5021
13.4068
13.3172
13.233
13.154
13.0796
13.0097
12.944
12.8828
14.6868
14.5224
14.369
14.2267
14.0954
13.9747
13.8642
13.7635
13.6717
13.5882
13.5123
13.4431
13.38
13.3225
13.2698
13.2214
13.177
13.1366
14.6895
14.5345
14.3996
14.2859
14.1929
14.1192
14.0625
14.0204
13.9904
13.9703
13.958
13.9519
13.9505
13.9526
13.9572
13.9636
13.9711
13.9795
14.7119
14.6195
14.5876
14.6099
14.6758
14.7743
14.8953
15.0302
15.1727
15.3178
15.4618
15.6022
15.7371
15.8654
15.9864
16.0997
16.2052
16.303
14.8711
15.1211
15.5411
16.064
16.6402
17.2344
17.8234
18.3928
18.9338
19.4416
19.9136
20.3492
20.7488
21.1136
21.4454
21.7459
22.0173
22.2615
15.8754
17.703
19.7802
21.8817
23.9153
25.8337
27.6146
29.2493
30.7367
32.0802
33.2857
34.3613
35.316
36.1595
36.9014
37.5512
38.1174
38.6088
22.1655
31.0931
39.2929
46.845
53.8064
60.1481
65.8591
70.947
75.4317
79.344
82.7246
85.6202
88.0802
90.1541
91.8889
93.3269
94.5021
95.435
68.01
114.846
154.66
191.574
225.709
256.41
283.373
306.581
326.197
342.515
355.9
366.746
375.436
382.324
387.721
391.886
395.003
397.074
723.138
1065.45
1375.81
1655.41
1913.51
2143.19
2341.2
2507.17
2642.8
2750.93
2834.94
2898.32
2944.4
2976.19
2996.35
3007.16
3010.58
3008.07
15.8641
19.3993
29.8286
40.4551
51.3619
62.5079
73.8768
85.4504
97.2088
109.132
121.202
133.401
145.712
158.12
170.611
183.169
195.782
208.434
221.11
233.797
246.478
259.137
271.755
284.315
296.797
309.179
321.44
333.556
345.505
357.262
368.8
380.095
391.119
401.846
412.249
422.301
431.975
441.247
450.092
458.486
466.409
473.847
480.788
487.226
493.163
498.613
503.536
507.44
510.247
511.891
512.318
511.489
509.377
505.978
501.303
495.389
488.29
480.081
470.853
460.714
449.78
438.174
426.026
413.46
400.6
387.561
374.448
361.359
348.376
335.572
323.009
310.734
298.787
287.198
275.985
265.162
254.736
244.705
235.066
225.812
216.931
208.41
200.236
192.394
184.866
177.636
170.691
164.012
157.579
151.382
145.408
139.636
134.053
128.662
123.443
118.322
113.33
108.642
104.26
100.125
96.3567
93.7455
91.5508
89.5134
87.578
85.7285
83.9595
82.2665
80.6447
79.0907
77.6032
76.1805
74.8211
73.5234
72.286
71.1073
69.9862
68.9223
67.9154
66.9646
66.0694
65.2291
64.4433
63.7112
63.0324
62.4064
61.833
61.3119
60.8426
60.4245
60.0571
59.7402
59.4729
59.2548
59.0851
58.9634
58.8887
58.8603
58.8776
58.9399
59.0464
59.1959
59.387
59.6189
59.891
60.2022
60.5506
60.9347
61.3536
61.8064
62.2916
62.8076
63.3531
63.9267
64.5268
65.1518
65.8007
66.4724
67.1648
67.8768
68.6066
69.3528
70.114
70.8883
71.674
72.4686
73.2698
74.0737
74.8776
75.6762
76.4628
77.2299
77.9661
78.6568
79.2872
79.8312
80.2433
80.4462
80.3395
79.2995
42.8835
29.2899
36.7591
45.3176
53.4047
60.9508
68.0119
74.6553
80.9405
86.9155
92.6196
98.0844
103.336
108.395
113.277
117.995
122.557
126.969
131.234
135.353
139.326
143.151
146.827
150.35
153.717
156.927
159.977
162.867
165.598
168.172
170.592
172.865
174.998
177.001
178.887
180.669
182.363
183.988
185.564
187.112
188.656
190.219
191.829
193.514
195.302
197.231
199.359
201.371
203.154
204.661
205.852
206.685
207.123
207.134
206.692
205.781
204.393
202.532
200.213
197.459
194.303
190.787
186.955
182.857
178.543
174.063
169.465
164.794
160.09
155.39
150.725
146.121
141.599
137.178
132.869
128.682
124.623
120.695
116.9
113.236
109.701
106.292
103.004
99.8329
96.7726
93.8169
90.9596
88.1948
85.5157
82.915
80.3857
77.9219
75.5181
73.1603
70.8432
68.5734
66.2931
64.0176
61.8828
59.8775
57.9663
56.2548
54.6733
53.1735
51.7371
50.3567
49.0285
47.7501
46.5199
45.3363
44.1976
43.1026
42.0497
41.0379
40.066
39.133
38.2379
37.3801
36.5585
35.7725
35.0212
34.304
33.62
32.9688
32.3497
31.7622
31.2056
30.6794
30.183
29.7158
29.2774
28.8671
28.4845
28.1289
27.7999
27.497
27.2196
26.9673
26.7394
26.5355
26.3549
26.1971
26.0617
25.9479
25.855
25.7826
25.7302
25.6972
25.6827
25.6863
25.7072
25.7448
25.7985
25.8676
25.9515
26.0497
26.1611
26.2854
26.4218
26.5698
26.7289
26.8984
27.0782
27.2675
27.4663
27.6741
27.8911
28.1172
28.3527
28.5984
28.8553
29.1249
29.4098
29.7135
30.054
30.4485
30.9176
31.5335
32.5144
34.88
69.6599
38.284
43.5037
51.1162
58.2831
64.7553
70.5871
75.8715
80.6978
85.1415
89.2635
93.1126
96.7269
100.136
103.363
106.425
109.334
112.099
114.729
117.229
119.605
121.862
124.007
126.047
127.989
129.843
131.62
133.333
134.996
136.625
138.237
139.85
141.484
143.158
144.893
146.71
148.627
150.664
152.837
155.159
157.643
160.294
163.113
166.095
169.229
172.495
175.85
179.15
182.321
185.299
188.015
190.401
192.391
193.925
194.95
195.427
195.327
194.641
193.371
191.539
189.176
186.328
183.047
179.393
175.428
171.214
166.813
162.282
157.672
153.031
148.398
143.808
139.289
134.862
130.543
126.347
122.281
118.349
114.553
110.893
107.367
103.971
100.699
97.5446
94.5037
91.5682
88.7286
85.9776
83.3113
80.7197
78.1853
75.709
73.2951
70.8867
68.4998
66.1932
63.9307
61.7275
59.6166
57.6066
55.6924
53.8818
52.1577
50.505
48.9149
47.3828
45.9059
44.482
43.1096
41.787
40.5128
39.2855
38.1037
36.9661
35.8714
34.8184
33.8059
32.8329
31.8982
31.0008
30.1398
29.3142
28.523
27.7653
27.0404
26.3473
25.6853
25.0535
24.4513
23.8777
23.3322
22.8139
22.3221
21.8561
21.4153
20.9989
20.6063
20.2369
19.8899
19.5647
19.2607
18.9771
18.7134
18.469
18.2432
18.0352
17.8446
17.6707
17.5129
17.3705
17.243
17.1296
17.0297
16.9428
16.8682
16.8053
16.7537
16.7126
16.6816
16.66
16.6475
16.6436
16.648
16.6602
16.6801
16.7075
16.7425
16.7852
16.8359
16.8956
16.9652
17.0465
17.1422
17.2564
17.3976
17.5937
17.8658
18.274
18.9594
20.3823
96.6129
45.4571
47.9562
54.6065
61.1149
66.9525
72.1347
76.7594
80.9292
84.7318
88.2372
91.5002
94.5626
97.4554
100.202
102.818
105.316
107.707
109.997
112.193
114.304
116.338
118.304
120.213
122.079
123.916
125.741
127.572
129.428
131.331
133.303
135.366
137.544
139.861
142.338
144.997
147.859
150.941
154.256
157.816
161.627
165.687
169.989
174.517
179.246
184.143
189.145
194.131
199.013
203.695
208.08
212.065
215.55
218.442
220.658
222.133
222.822
222.701
221.772
220.058
217.603
214.469
210.728
206.464
201.764
196.716
191.406
185.911
180.304
174.649
169
163.405
157.899
152.511
147.263
142.171
137.248
132.496
127.917
123.509
119.271
115.198
111.277
107.501
103.863
100.359
96.9686
93.6726
90.4836
87.3932
84.3373
81.3476
78.4684
75.6658
72.9487
70.3279
67.7959
65.3537
63.0074
60.7609
58.611
56.5526
54.5765
52.675
50.8428
49.0764
47.3734
45.7317
44.1495
42.625
41.1565
39.7424
38.3809
37.0705
35.8097
34.5969
33.4307
32.3097
31.2325
30.198
29.2049
28.2518
27.3377
26.4615
25.6219
24.818
24.0487
23.313
22.6099
21.9385
21.2978
20.6869
20.1049
19.5509
19.0242
18.5238
18.0489
17.5987
17.1724
16.7693
16.3885
16.0292
15.6908
15.3725
15.0735
14.7931
14.5306
14.2852
14.0563
13.8431
13.6449
13.4611
13.291
13.1338
12.9889
12.8558
12.7336
12.6219
12.5201
12.4275
12.3437
12.2681
12.2004
12.1402
12.0871
12.041
12.0017
11.9693
11.944
11.9263
11.9168
11.917
11.9288
11.9555
12.0027
12.088
12.2301
12.4686
12.8808
13.6652
122.195
51.1553
50.5611
56.1294
62.0291
67.3826
72.1285
76.3536
80.1647
83.6558
86.9017
89.9599
92.8728
95.6708
98.3752
101.001
103.557
106.052
108.49
110.879
113.223
115.532
117.814
120.082
122.35
124.634
126.952
129.325
131.775
134.327
137.005
139.836
142.845
146.061
149.509
153.215
157.201
161.49
166.097
171.036
176.315
181.933
187.881
194.14
200.678
207.451
214.388
221.365
228.266
234.965
241.322
247.191
252.428
256.893
260.462
263.034
264.535
264.927
264.205
262.399
259.569
255.801
251.2
245.882
239.971
233.59
226.858
219.884
212.768
205.593
198.434
191.356
184.406
177.618
171.019
164.63
158.466
152.532
146.824
141.335
136.064
131.011
126.157
121.476
116.961
112.632
108.452
104.342
100.387
96.5948
92.9288
89.3971
86.0048
82.7412
79.6032
76.5885
73.6917
70.9087
68.2374
65.6761
63.2203
60.8629
58.5964
56.4144
54.3124
52.2868
50.3349
48.4543
46.6428
44.8982
43.2187
41.6021
40.0465
38.5501
37.1109
35.7272
34.3972
33.1193
31.8919
30.7133
29.582
28.4967
27.4558
26.458
25.5019
24.5862
23.7097
22.8712
22.0694
21.3032
20.5716
19.8733
19.2074
18.5727
17.9684
17.3934
16.8467
16.3274
15.8345
15.3671
14.9245
14.5055
14.1095
13.7355
13.3827
13.0502
12.7373
12.4431
12.1668
11.9077
11.6648
11.4375
11.2249
11.0264
10.8412
10.6685
10.5077
10.358
10.2188
10.0895
9.96943
9.85808
9.75492
9.6595
9.57141
9.49032
9.41602
9.34836
9.28737
9.23326
9.18651
9.14795
9.11899
9.10192
9.1007
9.12428
9.19095
9.32264
9.56138
9.99699
145.295
55.5795
51.7154
56.074
61.3324
66.2446
70.6427
74.5862
78.1772
81.5115
84.6661
87.6998
90.655
93.5609
96.4369
99.2948
102.142
104.981
107.815
110.648
113.481
116.319
119.171
122.046
124.956
127.917
130.945
134.063
137.292
140.658
144.187
147.908
151.852
156.048
160.529
165.324
170.464
175.977
181.889
188.22
194.985
202.193
209.839
217.906
226.363
235.16
244.226
253.433
262.642
271.687
280.384
288.53
295.918
302.344
307.624
311.601
314.16
315.233
314.804
312.906
309.621
305.066
299.387
292.744
285.307
277.248
268.731
259.908
250.911
241.849
232.82
223.908
215.182
206.683
198.435
190.459
182.779
175.412
168.343
161.545
155.007
148.767
142.799
137.021
131.418
126.094
121.007
116.117
111.44
106.971
102.692
98.5961
94.6759
90.9219
87.3258
83.8803
80.5782
77.4124
74.377
71.467
68.6758
65.9961
63.4207
60.9431
58.5584
56.2624
54.0519
51.9237
49.8752
47.9038
46.0071
44.1826
42.4281
40.7412
39.1199
37.5618
36.0651
34.6277
33.2478
31.9233
30.6526
29.4338
28.2653
27.1454
26.0726
25.0453
24.0621
23.1214
22.222
21.3624
20.5413
19.7576
19.0099
18.297
17.6179
16.9713
16.3562
15.7716
15.2162
14.6892
14.1895
13.7162
13.2682
12.8447
12.4446
12.0671
11.7113
11.3762
11.061
10.7648
10.4867
10.2259
9.98143
9.75256
9.53841
9.33821
9.15113
8.97644
8.81336
8.66119
8.51924
8.38684
8.2634
8.14835
8.0412
7.94149
7.84886
7.76304
7.68388
7.61135
7.54565
7.48727
7.43709
7.39667
7.36866
7.35819
7.37824
7.44249
7.57384
7.81504
165.271
58.9033
51.7877
54.8585
59.4297
63.9051
67.994
71.7139
75.154
78.4071
81.5506
84.6438
87.7293
90.8357
93.981
97.1748
100.421
103.721
107.072
110.473
113.923
117.423
120.975
124.585
128.261
132.015
135.861
139.817
143.904
148.145
152.567
157.199
162.072
167.221
172.682
178.491
184.686
191.307
198.391
205.972
214.082
222.743
231.97
241.757
252.083
262.905
274.159
285.735
297.472
309.171
320.59
331.459
341.487
350.386
357.882
363.739
367.774
369.873
369.994
368.169
364.501
359.145
352.3
344.183
335.021
325.044
314.475
303.521
292.362
281.135
269.957
258.932
248.166
237.717
227.603
217.819
208.397
199.403
190.812
182.548
174.537
166.954
159.757
152.89
146.338
140.109
134.183
128.538
123.159
118.033
113.144
108.479
104.024
99.7679
95.6991
91.8071
88.0824
84.5157
81.0991
77.8248
74.6851
71.6723
68.7787
65.9977
63.3237
60.7518
58.2778
55.8981
53.6093
51.4083
49.292
47.2577
45.3026
43.4241
41.6196
39.8865
38.2226
36.6254
35.0927
33.6224
32.2123
30.8604
29.5647
28.3233
27.1344
25.9961
24.9067
23.8646
22.8682
21.9158
21.0061
20.1375
19.3087
18.5183
17.765
17.0475
16.3646
15.7152
15.098
14.5119
13.9559
13.4289
12.9297
12.4575
12.0112
11.5898
11.1924
10.8179
10.4655
10.1341
9.82293
9.53096
9.2573
9.00105
8.76131
8.53721
8.32785
8.1324
7.95003
7.77992
7.6213
7.47341
7.33554
7.20703
7.08726
6.97567
6.87175
6.77508
6.68535
6.60233
6.52599
6.45648
6.39428
6.34035
6.29639
6.26553
6.25587
6.27658
6.34031
6.46842
181.741
61.295
51.1058
52.8708
56.7192
60.7462
64.5356
68.0531
71.3676
74.5648
77.7208
80.895
84.1308
87.4573
90.8921
94.4441
98.1156
101.904
105.805
109.813
113.922
118.127
122.425
126.817
131.304
135.891
140.588
145.406
150.361
155.472
160.762
166.255
171.984
177.981
184.284
190.935
197.981
205.469
213.454
221.987
231.124
240.914
251.399
262.607
274.543
287.187
300.504
314.421
328.777
343.34
357.812
371.842
385.036
396.989
407.308
415.642
421.712
425.329
426.405
424.964
421.124
415.088
407.115
397.498
386.535
374.517
361.731
348.457
334.949
321.382
307.88
294.536
281.533
268.974
256.868
245.128
233.78
223.026
212.825
203.121
193.882
185.128
176.837
168.977
161.52
154.447
147.734
141.357
135.296
129.531
124.042
118.813
113.826
109.068
104.524
100.181
96.0287
92.0552
88.2508
84.6065
81.1134
77.7629
74.5473
71.4592
68.4925
65.6416
62.9015
60.2679
57.7368
55.3044
52.9673
50.7221
48.5656
46.4948
44.5067
42.5984
40.7672
39.0104
37.3254
35.7096
34.1607
32.6763
31.2542
29.892
28.5877
27.3393
26.1447
25.0019
23.9093
22.865
21.8672
20.9144
20.0049
19.1373
18.31
17.5216
16.7708
16.0563
15.3768
14.731
14.1179
13.5361
12.9848
12.4626
11.9687
11.502
11.0614
10.6459
10.2547
9.88666
9.54086
9.21635
8.91218
8.62741
8.36107
8.11226
7.88004
7.66349
7.46171
7.27382
7.09894
6.93624
6.78491
6.64416
6.51328
6.39157
6.2784
6.17321
6.07551
5.98491
5.90113
5.82409
5.75391
5.69105
5.63652
5.5922
5.56234
5.55436
5.57465
5.63445
194.502
62.9137
49.9463
50.4422
53.5517
57.1149
60.5984
63.9118
67.0983
70.233
73.3885
76.6242
79.9847
83.5007
87.1911
91.0651
95.1248
99.3666
103.784
108.366
113.105
117.989
123.011
128.162
133.437
138.835
144.356
150.003
155.783
161.707
167.79
174.05
180.511
187.201
194.157
201.419
209.038
217.07
225.581
234.646
244.346
254.768
265.998
278.114
291.175
305.215
320.248
336.273
353.152
370.641
388.385
405.94
422.789
438.377
452.154
463.618
472.355
478.067
480.601
479.956
476.27
469.784
460.828
449.794
437.074
423.03
407.983
392.298
376.363
360.403
344.547
328.746
313.402
298.669
284.556
271.045
258.153
245.919
234.334
223.367
212.987
203.17
193.887
185.107
176.797
168.927
161.469
154.394
147.677
141.295
135.224
129.444
123.937
118.684
113.671
108.882
104.304
99.9254
95.7341
91.72
87.8733
84.185
80.6467
77.2506
73.99
70.8585
67.8507
64.9617
62.1867
59.5215
56.962
54.5046
52.1456
49.8815
47.709
45.6247
43.6257
41.7089
39.8713
38.1101
36.4226
34.806
33.2578
31.7754
30.3565
28.9987
27.6996
26.4572
25.2694
24.134
23.0492
22.013
21.0237
20.0796
19.1789
18.3202
17.5018
16.7223
15.9803
15.2745
14.6036
13.9664
13.3617
12.7883
12.2451
11.7311
11.2453
10.7866
10.354
9.94652
9.56327
9.20326
8.86553
8.54916
8.25317
7.97663
7.71859
7.47811
7.25425
7.04606
6.85263
6.67303
6.50638
6.35181
6.20847
6.07557
5.95236
5.83813
5.73224
5.63413
5.54334
5.45953
5.38255
5.31248
5.24979
5.19551
5.15181
5.12376
5.11513
5.13211
203.441
63.9011
48.5355
47.8438
50.2208
53.3091
56.4741
59.5703
62.6114
65.659
68.7802
72.0337
75.4657
79.1089
82.9848
87.1046
91.4715
96.0823
100.929
106
111.282
116.76
122.419
128.247
134.229
140.355
146.616
153.005
159.517
166.153
172.915
179.81
186.851
194.056
201.452
209.073
216.966
225.189
233.816
242.939
252.665
263.123
274.453
286.806
300.325
315.137
331.334
349.029
368.144
388.441
409.518
430.829
451.71
471.423
489.222
504.412
516.412
524.778
529.26
529.841
526.675
520.037
510.299
498.003
483.675
467.763
450.541
432.452
414.14
395.867
377.824
360.137
342.999
326.525
310.772
295.757
281.489
267.966
255.173
243.085
231.665
220.88
210.693
201.068
191.968
183.356
175.201
167.469
160.133
153.164
146.538
140.231
134.223
128.493
123.025
117.802
112.809
108.033
103.461
99.083
94.8874
90.8649
87.0066
83.3044
79.7508
76.3393
73.0637
69.9186
66.8988
63.9996
61.2166
58.5456
55.9826
53.5237
51.1652
48.9037
46.7356
44.6576
42.6664
40.7589
38.932
37.1827
35.5081
33.9055
32.372
30.905
29.502
28.1606
26.8782
25.6527
24.4818
23.3634
22.2955
21.276
20.3031
19.3751
18.4901
17.6467
16.8431
16.0779
15.3498
14.6573
13.9992
13.3742
12.7812
12.2191
11.6868
11.1832
10.7073
10.2582
9.83501
9.43667
9.06231
8.71102
8.38188
8.07397
7.78638
7.51818
7.26843
7.03619
6.82052
6.62046
6.43509
6.26346
6.10467
5.95781
5.82204
5.69653
5.5805
5.47324
5.37412
5.2826
5.19828
5.12096
5.05066
4.98786
4.93366
4.89086
4.86217
4.85119
208.486
64.3918
47.0648
45.2976
46.9687
49.5792
52.4143
55.2769
58.1506
61.0804
64.1262
67.3448
70.783
74.4764
78.4493
82.716
87.2821
92.1462
97.3007
102.733
108.427
114.364
120.526
126.893
133.444
140.159
147.02
154.009
161.111
168.311
175.599
182.967
190.414
197.943
205.565
213.303
221.192
229.284
237.653
246.397
255.644
265.558
276.339
288.219
301.457
316.314
333.017
351.821
372.75
395.594
419.91
445.039
470.143
494.272
516.446
535.751
551.416
562.82
569.573
571.676
569.332
562.831
552.486
539.121
523.397
505.893
487.096
467.498
447.562
427.632
407.969
388.762
370.164
352.285
335.192
318.917
303.468
288.837
275.005
261.941
249.608
237.967
226.977
216.596
206.784
197.501
188.711
180.378
172.471
164.96
157.817
151.018
144.538
138.358
132.458
126.821
121.431
116.273
111.335
106.605
102.07
97.7224
93.5513
89.5488
85.7071
82.0191
78.4783
75.0789
71.8153
68.6825
65.6758
62.7906
60.0226
57.3678
54.8221
52.3817
50.0429
47.802
45.6557
43.6003
41.6326
39.7494
37.9473
36.2234
34.5747
32.9981
31.4909
30.0504
28.6737
27.3585
26.1022
24.9023
23.7567
22.663
21.6193
20.6233
19.6733
18.7674
17.9037
17.0807
16.2968
15.5504
14.8401
14.1646
13.5226
12.9129
12.3343
11.7858
11.2663
10.7748
10.3104
9.87219
9.45926
9.07074
8.70577
8.36349
8.04305
7.74357
7.46419
7.20399
6.96208
6.73753
6.5294
6.33674
6.15863
5.9941
5.84224
5.70213
5.57289
5.4537
5.34378
5.24242
5.14903
5.06315
4.98453
4.91321
4.84962
4.79504
4.75148
4.72121
209.874
65.3162
45.9381
43.0683
44.0278
46.1509
48.6435
51.2578
53.9448
56.7303
59.6641
62.7989
66.1813
69.8484
73.8275
78.1361
82.7833
87.771
93.0958
98.7429
104.69
110.919
117.408
124.133
131.067
138.184
145.455
152.853
160.35
167.921
175.541
183.187
190.842
198.493
206.136
213.775
221.432
229.146
236.981
245.034
253.441
262.389
272.127
282.971
295.305
309.564
326.188
345.589
367.924
393.021
420.384
449.221
478.493
507.003
533.519
556.905
576.219
590.703
599.707
603.346
601.905
595.815
585.634
572.069
555.822
537.556
517.866
497.282
476.267
455.201
434.384
414.038
394.328
375.37
357.239
339.971
323.58
308.055
293.377
279.513
266.423
254.066
242.398
231.373
220.95
211.085
201.741
192.879
184.466
176.47
168.863
161.616
154.708
148.115
141.817
135.796
130.036
124.521
119.238
114.175
109.319
104.661
100.191
95.8998
91.7798
87.8237
84.0248
80.3768
76.874
73.5112
70.2834
67.1859
64.2141
61.3638
58.6308
56.011
53.5007
51.0959
48.7931
46.5884
44.4784
42.4597
40.5287
38.6822
36.9169
35.2297
33.6174
32.077
30.6056
29.2004
27.8586
26.5776
25.3548
24.1877
23.0739
22.0113
20.9975
20.0306
19.1086
18.2295
17.3917
16.5933
15.8328
15.1087
14.4195
13.764
13.1408
12.5487
11.9867
11.4537
10.9487
10.4708
10.0191
9.59264
9.19074
8.81256
8.45729
8.12416
7.81237
7.52111
7.24955
6.99685
6.76213
6.5445
6.34303
6.1568
5.98487
5.82629
5.68014
5.5455
5.4215
5.30732
5.20221
5.10553
5.01681
4.93577
4.86244
4.79734
4.74135
4.69638
207.416
66.5292
45.4012
41.4154
41.6444
43.2627
45.3984
47.7536
50.2443
52.8735
55.6773
58.7013
61.9888
65.577
69.4944
73.7608
78.3876
83.378
88.7279
94.4252
100.452
106.787
113.406
120.28
127.38
134.673
142.123
149.696
157.355
165.063
172.784
180.484
188.131
195.699
203.167
210.528
217.786
224.968
232.127
239.353
246.784
254.621
263.146
272.747
283.927
297.304
313.572
333.338
356.919
384.109
414.332
446.623
479.705
512.124
542.409
569.23
591.498
608.449
619.657
625.08
624.981
619.837
610.271
596.998
580.759
562.273
542.195
521.102
499.486
477.756
456.235
435.169
414.737
395.066
376.233
358.284
341.232
325.072
309.78
295.325
281.668
268.765
256.571
245.04
234.129
223.793
213.994
204.693
195.855
187.447
179.441
171.808
164.524
157.568
150.917
144.553
138.461
132.623
127.027
121.659
116.508
111.563
106.814
102.254
97.8726
93.6635
89.6196
85.7346
82.0026
78.4184
74.9766
71.6727
68.5019
65.4599
62.5425
59.7455
57.065
54.497
52.0379
49.6837
47.431
45.2759
43.215
41.2449
39.3619
37.5629
35.8444
34.2032
32.6363
31.1404
29.7127
28.3502
27.0501
25.8097
24.6264
23.4977
22.4211
21.3944
20.4153
19.4817
18.5917
17.7432
16.9346
16.164
15.43
14.731
14.0655
13.4322
12.8299
12.2574
11.7137
11.1977
10.7085
10.2452
9.80701
9.39311
9.00277
8.63526
8.28986
7.96586
7.66254
7.37914
7.11492
6.86906
6.64075
6.42912
6.23329
6.05235
5.88538
5.73145
5.58965
5.45911
5.33898
5.2285
5.12704
5.03411
4.94948
4.87321
4.80556
4.74767
200.801
67.6274
45.4086
40.4178
39.9475
41.0715
42.8551
44.9553
47.2549
49.7324
52.4078
55.316
58.495
61.9791
65.7963
69.9669
74.5035
79.4106
84.6852
90.317
96.2896
102.582
109.167
116.015
123.092
130.361
137.782
145.315
152.914
160.537
168.139
175.675
183.107
190.397
197.517
204.45
211.195
217.774
224.239
230.686
237.264
244.194
251.793
260.502
270.919
283.827
300.143
320.573
345.398
374.432
407.002
441.982
477.912
513.173
546.166
575.479
599.985
618.903
631.814
638.664
639.712
635.456
626.548
613.731
597.772
579.418
559.354
538.185
516.423
494.492
472.728
451.388
430.66
410.676
391.52
373.237
355.845
339.34
323.701
308.898
294.891
281.639
269.096
257.219
245.963
235.287
225.15
215.515
206.348
197.616
189.29
181.344
173.752
166.493
159.545
152.891
146.514
140.398
134.529
128.895
123.484
118.285
113.288
108.485
103.868
99.429
95.161
91.0578
87.1135
83.3228
79.6805
76.1818
72.8222
69.5972
66.5027
63.5346
60.689
57.9619
55.3497
52.8484
50.4545
48.1643
45.9742
43.8806
41.8799
39.9688
38.1436
36.4012
34.738
33.151
31.6368
30.1924
28.8148
27.501
26.2482
25.0536
23.9147
22.8287
21.7935
20.8065
19.8655
18.9685
18.1135
17.2985
16.5216
15.7813
15.0759
14.4039
13.7639
13.1545
12.5746
12.0231
11.4988
11.0008
10.5283
10.0804
9.65626
9.25529
8.87675
8.52001
8.18442
7.86933
7.57412
7.29808
7.04053
6.80073
6.57791
6.37124
6.17989
6.00301
5.8397
5.68909
5.55032
5.42258
5.30515
5.19742
5.09897
5.00959
4.92928
4.85834
189.82
68.2169
45.8504
40.1014
39.0289
39.7111
41.1779
43.053
45.1901
47.5445
50.1183
52.9342
56.0217
59.41
63.1243
67.184
71.6015
76.382
81.5234
87.0168
92.8468
98.9919
105.426
112.117
119.029
126.123
133.356
140.681
148.053
155.42
162.735
169.949
177.018
183.902
190.571
197.008
203.215
209.221
215.088
220.927
226.909
233.287
240.416
248.797
259.121
272.302
289.445
311.264
337.949
369.166
404.03
441.198
479.046
515.872
550.08
580.312
605.517
624.989
638.373
645.652
647.103
643.233
634.7
622.247
606.642
588.626
568.882
548.01
526.52
504.833
483.281
462.118
441.533
421.655
402.568
384.32
366.928
350.391
334.691
319.798
305.678
292.29
279.593
267.544
256.102
245.228
234.884
225.034
215.646
206.689
198.135
189.959
182.137
174.647
167.469
160.587
153.983
147.643
141.553
135.7
130.073
124.662
119.457
114.448
109.629
104.991
100.528
96.234
92.1022
88.1276
84.3053
80.6305
77.0986
73.7056
70.4473
67.3197
64.319
61.4415
58.6835
56.0414
53.5116
51.0904
48.7744
46.5601
44.4437
42.422
40.4913
38.6482
36.8893
35.2113
33.6108
32.0846
30.6294
29.2422
27.9199
26.6597
25.4586
24.3139
23.2229
22.1832
21.1923
20.2479
19.3477
18.4897
17.6717
16.892
16.1488
15.4402
14.7649
14.1211
13.5077
12.9232
12.3666
11.8367
11.3324
10.853
10.3974
9.96508
9.55521
9.16716
8.80033
8.45413
8.128
7.82138
7.53367
7.26429
7.01259
6.77792
6.55955
6.35673
6.16868
5.99462
5.83373
5.68522
5.54837
5.4225
5.30712
5.20184
5.10649
5.02135
174.408
67.8557
46.5158
40.4169
38.9326
39.2894
40.5244
42.2451
44.2844
46.5773
49.1092
51.8892
54.9372
58.2754
61.9247
65.9019
70.2181
74.8786
79.8817
85.2193
90.8769
96.8336
103.063
109.533
116.207
123.043
129.998
137.023
144.069
151.085
158.021
164.829
171.466
177.898
184.1
190.069
195.821
201.405
206.912
212.486
218.337
224.766
232.193
241.2
252.591
267.422
286.922
311.579
341.291
375.343
412.469
451.046
489.349
525.764
558.911
587.696
611.316
629.267
641.329
647.564
648.278
643.97
635.274
622.897
607.561
589.965
570.748
550.474
529.619
508.577
487.657
467.096
447.071
427.701
409.067
391.212
374.155
357.895
342.417
327.695
313.698
300.39
287.734
275.693
264.229
253.307
242.892
232.953
223.459
214.384
205.701
197.387
189.419
181.779
174.447
167.408
160.644
154.143
147.891
141.877
136.088
130.515
125.149
119.98
115.002
110.206
105.586
101.135
96.8489
92.7211
88.7472
84.9223
81.2424
77.7032
74.3009
71.0317
67.8921
64.8785
61.9875
59.2156
56.5595
54.0158
51.5811
49.252
47.0251
44.897
42.8642
40.9234
39.071
37.3039
35.6184
34.0114
32.4796
31.0197
29.6286
28.3032
27.0404
25.8374
24.6914
23.5996
22.5594
21.5684
20.624
19.724
18.8662
18.0485
17.2689
16.5256
15.8167
15.1407
14.4959
13.8809
13.2944
12.7351
12.2018
11.6935
11.2093
10.7482
10.3095
9.89248
9.4965
9.12096
8.76535
8.42914
8.11183
7.81295
7.53197
7.26836
7.02158
6.79101
6.57602
6.37595
6.19009
6.01777
5.85829
5.71103
5.57545
5.45112
5.33775
5.23564
154.809
66.0901
47.1
41.248
39.6758
39.9217
41.0863
42.7847
44.8411
47.1778
49.7667
52.6056
55.705
59.0805
62.7481
66.7216
71.0106
75.6196
80.547
85.7851
91.32
97.1311
103.192
109.471
115.931
122.53
129.221
135.958
142.691
149.369
155.946
162.379
168.636
174.694
180.551
186.226
191.773
197.282
202.898
208.824
215.346
222.847
231.846
243.051
257.421
276.21
300.333
329.763
363.754
400.929
439.522
477.714
513.924
546.936
575.883
600.171
619.411
633.387
642.064
645.585
644.268
638.575
629.075
616.389
601.153
583.975
565.415
545.963
526.034
505.968
486.035
466.441
447.337
428.827
410.981
393.837
377.413
361.707
346.707
332.392
318.736
305.709
293.28
281.416
270.087
259.261
248.911
239.007
229.525
220.44
211.73
203.374
195.352
187.648
180.243
173.124
166.275
159.683
153.337
147.224
141.335
135.659
130.188
124.912
119.825
114.919
110.187
105.624
101.224
96.9818
92.8923
88.9512
85.1545
81.4983
77.9789
74.5928
71.3368
68.2076
65.2021
62.3172
59.5498
56.8968
54.355
51.9215
49.5929
47.3662
45.2379
43.205
41.264
39.4117
37.6448
35.9599
34.3538
32.8231
31.3648
29.9755
28.6523
27.392
26.1918
25.0487
23.96
22.9231
21.9353
20.9942
20.0974
19.2427
18.4279
17.651
16.91
16.2032
15.5287
14.885
14.2706
13.684
13.1239
12.5892
12.0787
11.5914
11.1265
10.6831
10.2605
9.85801
9.47512
9.11131
8.76609
8.43901
8.12967
7.83763
7.56245
7.30369
7.06085
6.83341
6.62084
6.42257
6.23804
6.0667
5.90806
5.76169
5.62728
5.5051
131.214
62.3792
47.0214
42.1937
41.0426
41.5473
42.9295
44.8415
47.1171
49.6778
52.491
55.5493
58.858
62.4285
66.2737
70.4049
74.8305
79.5542
84.5741
89.8825
95.4656
101.303
107.368
113.629
120.048
126.582
133.187
139.814
146.417
152.949
159.371
165.654
171.781
177.759
183.622
189.439
195.324
201.449
208.05
215.443
224.039
234.363
247.099
263.134
283.549
309.593
340.964
376.656
414.929
453.653
490.787
524.776
554.699
580.167
601.112
617.581
629.635
637.338
640.785
640.154
635.72
627.86
617.025
603.711
588.423
571.646
553.826
535.353
516.557
497.71
479.026
460.667
442.753
425.368
408.565
392.376
376.815
361.88
347.563
333.847
320.711
308.133
296.088
284.55
273.494
262.897
252.734
242.984