/*--------------------------------*- C++ -*----------------------------------*\
| =========                 |                                                 |
| \\      /  F ield         | OpenFOAM: The Open Source CFD Toolbox           |
|  \\    /   O peration     | Version:  2.2.x                                 |
|   \\  /    A nd           | Web:      www.OpenFOAM.org                      |
|    \\/     M anipulation  |                                                 |
\*---------------------------------------------------------------------------*/
FoamFile
{
    version     2.0;
    format      ascii;
    class       volScalarField;
    location    "100";
    object      k;
}
// * * * * * * * * * * * * * * * * * * * * * * * * * * * * * * * * * * * * * //

dimensions      [0 2 -2 0 0 0 0];

internalField   nonuniform List<scalar> 
12225
(
0.773249
1.11724
1.35397
1.50309
1.59032
1.6363
1.65573
1.65851
1.65114
1.63778
1.62106
1.60262
1.58343
1.56411
1.54495
1.52605
1.50715
1.48925
0.49281
0.515928
0.520126
0.519444
0.516128
0.511289
0.505892
0.500624
0.495909
0.491984
0.488962
0.486873
0.485708
0.485439
0.486062
0.487692
0.491132
0.49704
0.411993
0.424049
0.421803
0.41411
0.404166
0.393348
0.382394
0.371734
0.361631
0.352239
0.343639
0.335869
0.328932
0.322818
0.317518
0.313046
0.309461
0.30676
0.381864
0.385943
0.386334
0.383937
0.379742
0.374449
0.368526
0.362285
0.355939
0.349633
0.343467
0.337509
0.331804
0.326381
0.32126
0.316453
0.311966
0.307812
0.375243
0.375516
0.374927
0.373399
0.371082
0.368167
0.364827
0.361204
0.357408
0.353523
0.349613
0.345725
0.341894
0.338145
0.334498
0.330964
0.327548
0.324273
0.37347
0.372202
0.370878
0.369317
0.367482
0.365397
0.363108
0.360666
0.358115
0.355495
0.35284
0.350175
0.347522
0.344897
0.342314
0.33978
0.337304
0.33491
0.372984
0.371099
0.369342
0.367612
0.365854
0.364042
0.362173
0.360253
0.358294
0.356311
0.354316
0.352321
0.350338
0.348374
0.346439
0.344537
0.342676
0.340877
0.372869
0.370791
0.368853
0.36701
0.365223
0.363466
0.361725
0.359993
0.358267
0.35655
0.354846
0.353159
0.351493
0.349853
0.348243
0.346666
0.345127
0.343646
0.372831
0.37068
0.368659
0.366747
0.364924
0.363171
0.361473
0.359819
0.358203
0.356621
0.355072
0.353556
0.352071
0.350621
0.349206
0.347829
0.346491
0.34521
0.372817
0.370636
0.368575
0.366624
0.364771
0.363005
0.361316
0.359693
0.35813
0.35662
0.35516
0.353746
0.352376
0.35105
0.349766
0.348525
0.347328
0.346188
0.37281
0.370618
0.368541
0.366571
0.364701
0.362923
0.36123
0.359615
0.35807
0.356591
0.355173
0.353812
0.352505
0.351249
0.350043
0.348885
0.347777
0.346728
0.372805
0.370609
0.368526
0.366548
0.36467
0.362886
0.361188
0.359572
0.358031
0.356562
0.35516
0.353821
0.352542
0.35132
0.350153
0.349039
0.347977
0.346978
0.372802
0.370604
0.368517
0.366537
0.364656
0.362868
0.361168
0.35955
0.35801
0.356543
0.355146
0.353814
0.352546
0.351337
0.350186
0.349091
0.34805
0.347072
0.3728
0.3706
0.368512
0.36653
0.364647
0.362858
0.361157
0.359539
0.357999
0.356533
0.355138
0.35381
0.352545
0.351342
0.350196
0.349108
0.348074
0.347104
0.372798
0.370596
0.368508
0.366525
0.364641
0.362852
0.361151
0.359533
0.357994
0.35653
0.355136
0.35381
0.352548
0.351347
0.350204
0.349118
0.348087
0.347119
0.372796
0.370594
0.368504
0.366521
0.364637
0.362848
0.361147
0.35953
0.357992
0.356529
0.355138
0.353813
0.352553
0.351354
0.350214
0.349129
0.348099
0.347132
0.372795
0.370592
0.368502
0.366518
0.364635
0.362846
0.361146
0.35953
0.357993
0.356532
0.355142
0.353819
0.352561
0.351364
0.350225
0.349142
0.348112
0.347145
0.372794
0.370591
0.368501
0.366517
0.364634
0.362846
0.361146
0.359532
0.357997
0.356537
0.355149
0.353828
0.352572
0.351376
0.350238
0.349155
0.348126
0.347159
0.372794
0.370591
0.368501
0.366518
0.364635
0.362848
0.36115
0.359537
0.358003
0.356545
0.355158
0.353839
0.352584
0.35139
0.350253
0.349171
0.348142
0.347174
0.372794
0.370591
0.368502
0.36652
0.364639
0.362853
0.361156
0.359545
0.358013
0.356556
0.355171
0.353854
0.3526
0.351407
0.350271
0.34919
0.348161
0.347193
0.372795
0.370593
0.368505
0.366524
0.364645
0.362861
0.361167
0.359558
0.358029
0.356576
0.355193
0.353878
0.352627
0.351436
0.350301
0.34922
0.348192
0.347224
0.372796
0.370596
0.368511
0.366534
0.36466
0.362883
0.361196
0.359595
0.358073
0.356626
0.35525
0.353939
0.352691
0.351501
0.350365
0.349282
0.348248
0.347274
0.372799
0.370606
0.368534
0.366575
0.364722
0.362968
0.361305
0.359724
0.358218
0.356783
0.355411
0.3541
0.352843
0.351639
0.350484
0.349375
0.348311
0.347302
0.372814
0.370661
0.368651
0.366766
0.36499
0.363305
0.361696
0.36015
0.358659
0.357216
0.355818
0.354461
0.353143
0.351863
0.35062
0.349414
0.348245
0.347127
0.37291
0.370958
0.369195
0.367548
0.365961
0.364397
0.362837
0.361274
0.359706
0.358138
0.356575
0.355022
0.353486
0.35197
0.35048
0.34902
0.347592
0.346215
0.373467
0.372365
0.371365
0.370242
0.368913
0.367373
0.365652
0.36379
0.361826
0.359795
0.357725
0.355638
0.353553
0.351484
0.349443
0.347438
0.345477
0.343581
0.376461
0.378226
0.378829
0.378165
0.376541
0.374265
0.371562
0.368586
0.365444
0.362212
0.358943
0.355677
0.352443
0.349262
0.346152
0.343124
0.340187
0.337363
0.392618
0.40137
0.402205
0.399562
0.395355
0.390395
0.385071
0.379589
0.37407
0.368592
0.363213
0.357975
0.352908
0.348035
0.34337
0.33892
0.334689
0.330686
0.438273
0.449745
0.450756
0.449511
0.447746
0.445749
0.443604
0.441358
0.439048
0.436711
0.434389
0.432116
0.429925
0.42784
0.425879
0.424047
0.422332
0.420674
0.544747
0.705349
0.836411
0.946204
1.04216
1.12397
1.19217
1.24787
1.29248
1.3275
1.35439
1.3745
1.38903
1.39901
1.40532
1.4087
1.40977
1.40898
0.0471066
0.0899987
0.12013
0.147379
0.172978
0.197333
0.220729
0.243344
0.265296
0.286669
0.307522
0.327902
0.347845
0.367379
0.386527
0.405309
0.423738
0.441825
0.459578
0.477002
0.494101
0.510873
0.527317
0.543428
0.559199
0.574623
0.589689
0.604386
0.618701
0.632621
0.64613
0.659213
0.671853
0.684034
0.695739
0.70695
0.717652
0.727826
0.737458
0.746532
0.755038
0.762966
0.770313
0.77708
0.783275
0.788919
0.794058
0.798191
0.801175
0.802946
0.803451
0.802644
0.800493
0.796982
0.792111
0.785901
0.778388
0.76963
0.759701
0.748691
0.736702
0.723847
0.710244
0.696014
0.681281
0.666162
0.650769
0.635209
0.619578
0.603961
0.588436
0.573068
0.557911
0.543013
0.528409
0.514127
0.500187
0.486602
0.473379
0.460521
0.448025
0.435884
0.424091
0.412636
0.401505
0.390685
0.380162
0.369921
0.359941
0.350206
0.340709
0.33143
0.322339
0.313446
0.30475
0.296151
0.287628
0.279367
0.271532
0.2641
0.256947
0.251419
0.247157
0.243242
0.239507
0.235912
0.232444
0.229098
0.225865
0.222742
0.219726
0.216816
0.21401
0.211308
0.208706
0.206205
0.203802
0.201498
0.199294
0.19719
0.195185
0.19328
0.191475
0.189769
0.188162
0.186655
0.185247
0.183939
0.182731
0.181623
0.180613
0.179703
0.178891
0.178176
0.177557
0.177035
0.176606
0.17627
0.176025
0.175871
0.175805
0.175825
0.175928
0.176112
0.176376
0.176718
0.177132
0.177616
0.178167
0.178783
0.17946
0.180196
0.180986
0.181827
0.182716
0.183649
0.184623
0.185635
0.186682
0.18776
0.188864
0.189993
0.191143
0.192309
0.193489
0.194677
0.195869
0.197057
0.198238
0.1994
0.200532
0.201623
0.202651
0.203592
0.204421
0.205097
0.205545
0.205636
0.2052
0.203176
0.0921227
0.152332
0.195494
0.231377
0.263148
0.292283
0.319521
0.345343
0.370091
0.39401
0.417279
0.440033
0.462373
0.484377
0.506106
0.527605
0.548912
0.570055
0.591058
0.611941
0.632721
0.653413
0.674032
0.694591
0.715104
0.735584
0.756046
0.776502
0.796968
0.817458
0.837985
0.858563
0.879203
0.899916
0.920712
0.941593
0.962561
0.983608
1.00472
1.02588
1.04704
1.06817
1.08919
1.11004
1.13062
1.1508
1.17037
1.18889
1.2062
1.22206
1.23626
1.24855
1.25874
1.26662
1.27205
1.27492
1.27517
1.27278
1.26781
1.26035
1.25053
1.23853
1.22455
1.20882
1.19158
1.17308
1.15354
1.1332
1.11227
1.09095
1.06941
1.04781
1.02626
1.00489
0.98379
0.96302
0.942638
0.922683
0.90318
0.884147
0.865586
0.847494
0.829862
0.812679
0.795926
0.779576
0.763605
0.747991
0.732701
0.717697
0.702949
0.688438
0.674122
0.659921
0.645854
0.631981
0.617924
0.60369
0.590004
0.576841
0.563828
0.551229
0.539025
0.527124
0.515504
0.50416
0.49309
0.482294
0.471771
0.46152
0.451535
0.441812
0.432349
0.423139
0.414181
0.405472
0.397009
0.38879
0.380814
0.373076
0.365574
0.358307
0.351272
0.344466
0.337889
0.331538
0.325411
0.319507
0.313821
0.308352
0.303097
0.298053
0.293216
0.288585
0.284156
0.279925
0.275889
0.272045
0.268388
0.264914
0.261619
0.258497
0.255546
0.252759
0.25013
0.247654
0.245328
0.243145
0.241099
0.239183
0.237393
0.235722
0.234164
0.232713
0.231363
0.230108
0.228942
0.227859
0.226852
0.225918
0.22505
0.224245
0.223499
0.222806
0.222164
0.221569
0.221019
0.220512
0.220047
0.219624
0.219245
0.218913
0.218633
0.218411
0.218228
0.218062
0.217932
0.217945
0.218494
0.221855
0.127524
0.203304
0.258901
0.303865
0.343482
0.380007
0.414421
0.447273
0.478929
0.509645
0.5396
0.56892
0.597695
0.625985
0.653829
0.681255
0.708282
0.734921
0.761184
0.787083
0.812631
0.837847
0.862752
0.887373
0.911741
0.935892
0.95987
0.98372
1.00749
1.03125
1.05504
1.07893
1.10297
1.12723
1.15176
1.17662
1.20185
1.22748
1.25353
1.28
1.30687
1.3341
1.36161
1.38928
1.41696
1.44447
1.47145
1.4976
1.52256
1.54597
1.56746
1.58663
1.60312
1.61662
1.62683
1.63356
1.63667
1.6361
1.63187
1.6241
1.61296
1.59869
1.58156
1.56191
1.54006
1.51637
1.49116
1.46477
1.43751
1.40964
1.38142
1.35307
1.32476
1.29665
1.26887
1.24152
1.21467
1.18837
1.16266
1.13756
1.11308
1.0892
1.06591
1.0432
1.02103
0.999364
0.978161
0.957379
0.936997
0.916954
0.897144
0.877587
0.85831
0.838938
0.81959
0.800664
0.78193
0.763474
0.745491
0.728032
0.711028
0.694473
0.678315
0.662514
0.647055
0.631938
0.617161
0.602725
0.58863
0.574875
0.561456
0.548371
0.535616
0.523188
0.511083
0.499298
0.48783
0.476675
0.465832
0.455297
0.445067
0.43514
0.425512
0.41618
0.407141
0.398393
0.389933
0.381758
0.373863
0.366247
0.358906
0.351835
0.34503
0.338488
0.332205
0.326176
0.320396
0.314861
0.309566
0.304505
0.299672
0.295061
0.290667
0.286483
0.282503
0.278719
0.275124
0.271713
0.268476
0.265406
0.262496
0.259737
0.257122
0.254642
0.25229
0.250058
0.247938
0.245922
0.244003
0.242174
0.240428
0.238759
0.237162
0.23563
0.234161
0.232748
0.231391
0.230087
0.228836
0.227638
0.226497
0.225418
0.224414
0.2235
0.222711
0.222065
0.221649
0.22168
0.222616
0.226219
0.158735
0.241892
0.307392
0.360254
0.406852
0.449891
0.490567
0.529485
0.567022
0.603431
0.638885
0.673503
0.707363
0.740515
0.772987
0.804798
0.835956
0.866469
0.896344
0.925597
0.954248
0.982326
1.00987
1.03693
1.06357
1.08985
1.11586
1.14168
1.16741
1.19316
1.21904
1.24515
1.27162
1.29854
1.32604
1.35421
1.38313
1.41288
1.4435
1.47502
1.50743
1.54068
1.57467
1.60927
1.64427
1.67944
1.71439
1.74866
1.78177
1.81319
1.84239
1.86881
1.89194
1.9113
1.92648
1.93716
1.94313
1.94429
1.94067
1.9324
1.9197
1.9029
1.88237
1.85855
1.83187
1.80281
1.77181
1.7393
1.70567
1.67128
1.63646
1.60149
1.56659
1.53195
1.49773
1.46405
1.43101
1.39867
1.36705
1.33618
1.30607
1.27671
1.24806
1.22007
1.19273
1.16601
1.13981
1.11401
1.0887
1.06383
1.03898
1.01437
0.990323
0.966624
0.943354
0.920606
0.898337
0.876557
0.855312
0.83463
0.814484
0.794829
0.775615
0.756814
0.738411
0.720404
0.702792
0.685576
0.668756
0.652329
0.636294
0.620648
0.605387
0.590507
0.576006
0.56188
0.548124
0.534736
0.521713
0.50905
0.496746
0.484797
0.473199
0.461949
0.451043
0.440479
0.430252
0.42036
0.410799
0.401565
0.392654
0.384062
0.375784
0.367817
0.360154
0.352793
0.345727
0.338951
0.332459
0.326245
0.320303
0.314625
0.309206
0.304039
0.299115
0.294427
0.289965
0.285723
0.281691
0.27786
0.27422
0.270763
0.267479
0.264358
0.261389
0.258565
0.255874
0.253309
0.250859
0.248515
0.24627
0.244115
0.242044
0.24005
0.238127
0.236269
0.234474
0.232739
0.231062
0.229444
0.227889
0.226403
0.224999
0.223697
0.222537
0.221579
0.220921
0.220792
0.221566
0.224393
0.185737
0.270285
0.342799
0.401794
0.45395
0.502091
0.547553
0.591015
0.632893
0.673467
0.71293
0.751414
0.789008
0.825769
0.861728
0.896902
0.931298
0.96492
0.997778
1.02989
1.06127
1.09196
1.12202
1.15151
1.18051
1.20912
1.23744
1.26561
1.29376
1.32202
1.35057
1.37955
1.40912
1.43944
1.47067
1.50294
1.53638
1.57111
1.60718
1.64466
1.68354
1.72378
1.76528
1.80785
1.85126
1.8952
1.93924
1.98279
2.02524
2.06587
2.10398
2.1388
2.16961
2.19576
2.21665
2.23184
2.24101
2.24402
2.24087
2.23174
2.21695
2.19691
2.17214
2.1432
2.11069
2.07523
2.03739
1.99774
1.95677
1.91493
1.87263
1.83021
1.78797
1.74611
1.70482
1.66423
1.62448
1.58562
1.54765
1.51059
1.47444
1.43924
1.40489
1.37126
1.33835
1.30625
1.27479
1.24347
1.21283
1.18297
1.15366
1.125
1.09705
1.06975
1.04312
1.01715
0.991819
0.967117
0.94304
0.919586
0.896726
0.874415
0.852608
0.831274
0.810396
0.789967
0.769983
0.750443
0.731344
0.712684
0.69446
0.67667
0.659309
0.642374
0.625862
0.609768
0.594088
0.57882
0.563959
0.549502
0.535446
0.521787
0.508521
0.495645
0.483156
0.47105
0.459323
0.447972
0.436993
0.426383
0.416136
0.40625
0.396719
0.387539
0.378706
0.370214
0.362059
0.354235
0.346735
0.339554
0.332686
0.326123
0.319858
0.313884
0.308193
0.302775
0.297623
0.292726
0.288075
0.283661
0.279471
0.275497
0.271726
0.268147
0.26475
0.261522
0.258453
0.25553
0.252744
0.250083
0.247537
0.245097
0.242753
0.240498
0.238324
0.236224
0.234194
0.232229
0.230328
0.228489
0.226716
0.225013
0.223395
0.22188
0.220507
0.219343
0.218488
0.218137
0.218563
0.220499
0.208516
0.289889
0.366582
0.429669
0.485681
0.537362
0.586101
0.632646
0.677472
0.720905
0.76318
0.804463
0.844866
0.884462
0.923291
0.961373
0.998712
1.03531
1.07117
1.10629
1.1407
1.17443
1.20753
1.24007
1.27214
1.30385
1.33532
1.3667
1.39813
1.42981
1.4619
1.49459
1.52808
1.56256
1.59823
1.63525
1.67381
1.71404
1.75607
1.79997
1.84579
1.89349
1.94298
1.99409
2.04654
2.09997
2.15392
2.20775
2.26067
2.31182
2.36024
2.40492
2.44489
2.47921
2.50707
2.52782
2.54099
2.54635
2.54388
2.53381
2.51654
2.49264
2.4628
2.42775
2.3883
2.34522
2.2993
2.25126
2.20172
2.15123
2.10029
2.04934
1.99874
1.94874
1.8995
1.85116
1.80389
1.75781
1.71287
1.66899
1.62613
1.58451
1.54402
1.50423
1.46506
1.42714
1.39027
1.35427
1.31925
1.28523
1.25214
1.21995
1.18864
1.15819
1.12857
1.09974
1.07168
1.04435
1.01774
0.991816
0.966547
0.94189
0.917802
0.894253
0.871219
0.848688
0.826651
0.805103
0.784038
0.763453
0.743343
0.723705
0.704533
0.685825
0.667575
0.649779
0.632434
0.615534
0.599077
0.583059
0.567476
0.552324
0.537599
0.523298
0.509417
0.495952
0.482901
0.470259
0.458022
0.446188
0.434751
0.423708
0.413056
0.402789
0.392904
0.383395
0.374259
0.365489
0.35708
0.349027
0.341324
0.333963
0.326938
0.320242
0.313866
0.307802
0.302041
0.296573
0.291388
0.286475
0.281824
0.277422
0.273257
0.269316
0.265588
0.262058
0.258714
0.255543
0.252531
0.249666
0.246936
0.244329
0.241834
0.23944
0.23714
0.234923
0.232783
0.230715
0.228714
0.226779
0.224909
0.223109
0.221389
0.219768
0.218277
0.216975
0.215955
0.21537
0.215411
0.216545
0.22724
0.30198
0.380373
0.445618
0.503841
0.557614
0.608309
0.656719
0.703376
0.748661
0.79286
0.836178
0.878761
0.920701
0.962051
1.00283
1.04305
1.08269
1.12175
1.16022
1.1981
1.23541
1.27218
1.30848
1.34439
1.38
1.41543
1.45084
1.48637
1.5222
1.55852
1.59553
1.63345
1.67248
1.71285
1.75477
1.79845
1.84408
1.89184
1.94186
1.99425
2.04905
2.10622
2.16562
2.227
2.28999
2.35414
2.41881
2.48311
2.54597
2.60618
2.66243
2.71338
2.75775
2.79439
2.82235
2.84095
2.84978
2.84878
2.83819
2.81854
2.79055
2.75514
2.71327
2.66597
2.61426
2.55914
2.50154
2.44229
2.38204
2.32135
2.26076
2.20075
2.14167
2.08364
2.0267
1.97104
1.91699
1.8645
1.81322
1.76279
1.71415
1.66716
1.62156
1.57732
1.53454
1.49316
1.45307
1.41424
1.37663
1.34018
1.30483
1.27054
1.23726
1.20493
1.17352
1.14298
1.11327
1.08436
1.05621
1.02877
1.00201
0.97589
0.950368
0.925423
0.901034
0.87719
0.853878
0.831092
0.808823
0.787066
0.765814
0.745063
0.724806
0.705039
0.685757
0.666954
0.648626
0.630769
0.613379
0.596451
0.579981
0.563965
0.548399
0.533281
0.518604
0.504367
0.490565
0.477194
0.464252
0.451733
0.439636
0.427955
0.416687
0.405829
0.395375
0.385323
0.375667
0.366402
0.357524
0.349028
0.340907
0.333156
0.325767
0.318734
0.312049
0.305703
0.299687
0.29399
0.288604
0.283515
0.278712
0.274182
0.269912
0.265888
0.262095
0.258519
0.255146
0.251959
0.248945
0.246089
0.243376
0.240795
0.238331
0.235974
0.233713
0.231538
0.229442
0.227418
0.225461
0.22357
0.221746
0.219995
0.218333
0.216783
0.215392
0.214237
0.213435
0.213115
0.213582
0.242102
0.307789
0.385912
0.451683
0.510679
0.565297
0.61684
0.66612
0.713711
0.76005
0.805471
0.850223
0.894485
0.938374
0.981957
1.02526
1.06829
1.11102
1.15342
1.19546
1.23714
1.27844
1.31937
1.35997
1.40028
1.44039
1.48039
1.5204
1.56056
1.60103
1.64198
1.68359
1.72608
1.76965
1.81454
1.86097
1.9092
1.95947
2.01201
2.06705
2.12479
2.18538
2.24892
2.31538
2.38462
2.45631
2.53013
2.60552
2.68155
2.75699
2.83031
2.89984
2.9638
3.02044
3.06814
3.10554
3.13159
3.14567
3.14757
3.13754
3.11619
3.08446
3.0435
2.9946
2.93905
2.87811
2.81303
2.74502
2.67521
2.6044
2.53317
2.46199
2.39169
2.32279
2.25541
2.18917
2.12422
2.06157
2.00115
1.94273
1.8862
1.83175
1.77931
1.72876
1.68003
1.63303
1.58771
1.54396
1.50171
1.46087
1.42138
1.38316
1.34614
1.31026
1.27546
1.24168
1.20887
1.17698
1.14596
1.11577
1.08637
1.05771
1.02974
1.00244
0.975781
0.949729
0.92427
0.89939
0.875075
0.851317
0.828104
0.80543
0.783287
0.761668
0.740567
0.719976
0.699892
0.680307
0.661217
0.642616
0.6245
0.606865
0.589704
0.573016
0.556793
0.541034
0.525733
0.510887
0.496492
0.482544
0.469039
0.455975
0.443346
0.431151
0.419384
0.408044
0.397126
0.386625
0.37654
0.366864
0.357595
0.348728
0.340257
0.332178
0.324483
0.317168
0.310224
0.303643
0.297417
0.291536
0.285989
0.280764
0.27585
0.271232
0.266897
0.262829
0.259013
0.255432
0.25207
0.248911
0.245937
0.243133
0.240483
0.237971
0.235584
0.233308
0.23113
0.229041
0.227031
0.225092
0.223221
0.221414
0.219674
0.21801
0.21644
0.214998
0.21374
0.212754
0.21213
0.212073
0.253297
0.308473
0.384906
0.449954
0.508573
0.563018
0.614513
0.663862
0.71167
0.758414
0.804472
0.850135
0.895618
0.941062
0.986552
1.03212
1.07777
1.12346
1.16916
1.21481
1.26036
1.30579
1.35107
1.39619
1.44117
1.48605
1.53088
1.57575
1.62075
1.66599
1.71162
1.75778
1.80464
1.85239
1.90125
1.95145
2.00323
2.05688
2.1127
2.17101
2.23214
2.2964
2.36407
2.43537
2.51035
2.5889
2.67085
2.75595
2.8433
2.93154
3.01886
3.10314
3.18208
3.2533
3.31458
3.36398
3.39997
3.42156
3.42834
3.4205
3.39873
3.36417
3.31824
3.26262
3.19896
3.12881
3.05353
2.97467
2.89389
2.81221
2.73022
2.64774
2.56654
2.48744
2.41057
2.33591
2.26361
2.19395
2.12694
2.06252
2.00058
1.94107
1.88392
1.829
1.7762
1.72542
1.67654
1.62946
1.58407
1.54027
1.49798
1.4571
1.41756
1.37928
1.34218
1.30621
1.27129
1.23738
1.20442
1.17235
1.14114
1.11073
1.08109
1.05217
1.02394
0.996375
0.969455
0.943158
0.917469
0.892374
0.86786
0.843917
0.820535
0.797705
0.775419
0.75367
0.73245
0.711752
0.691571
0.6719
0.652733
0.634064
0.61589
0.598204
0.581001
0.564276
0.548026
0.532245
0.51693
0.502075
0.487678
0.473734
0.46024
0.447192
0.434586
0.42242
0.410689
0.39939
0.388521
0.378078
0.368058
0.358457
0.349271
0.340497
0.33213
0.324165
0.316597
0.309419
0.302625
0.296206
0.290154
0.284458
0.279107
0.274088
0.269389
0.264994
0.260887
0.257053
0.253472
0.250129
0.247004
0.244079
0.241335
0.238757
0.236325
0.234025
0.231841
0.22976
0.227768
0.225857
0.224016
0.222242
0.22053
0.218886
0.21732
0.215853
0.214527
0.2134
0.212541
0.212092
0.260982
0.305074
0.378932
0.442423
0.499838
0.553347
0.604109
0.652911
0.700368
0.746989
0.793188
0.839292
0.885548
0.932125
0.979123
1.02659
1.07451
1.12286
1.17158
1.22058
1.2698
1.31917
1.36863
1.41813
1.46764
1.51716
1.56669
1.61626
1.66591
1.71569
1.7657
1.81601
1.86675
1.91805
1.97008
2.02303
2.07715
2.13271
2.19006
2.24959
2.31175
2.37705
2.44602
2.51917
2.59694
2.67958
2.76722
2.86007
2.95744
3.05793
3.15945
3.25942
3.35488
3.44272
3.51994
3.58385
3.63233
3.66385
3.67766
3.67393
3.65343
3.61741
3.56746
3.50585
3.43478
3.35611
3.27097
3.18122
3.08958
2.99728
2.90521
2.81397
2.72448
2.63735
2.5529
2.4713
2.39264
2.31701
2.24442
2.17479
2.10804
2.04404
1.98269
1.92385
1.86737
1.81314
1.76102
1.71088
1.6626
1.61607
1.57119
1.52785
1.48596
1.44544
1.4062
1.36818
1.33131
1.29551
1.26074
1.22693
1.19404
1.16202
1.13082
1.10041
1.07074
1.04179
1.01353
0.98594
0.958999
0.932689
0.906996
0.881907
0.857408
0.83349
0.810143
0.787356
0.765122
0.743432
0.722278
0.701654
0.681553
0.661967
0.642892
0.62432
0.606247
0.588666
0.571571
0.554959
0.538824
0.52316
0.507965
0.493232
0.478958
0.465139
0.45177
0.438849
0.426372
0.414334
0.402735
0.391569
0.380835
0.37053
0.36065
0.351193
0.342156
0.333535
0.325327
0.317527
0.310131
0.303132
0.296525
0.2903
0.28445
0.278963
0.273828
0.269031
0.264559
0.260395
0.256522
0.252923
0.249577
0.246466
0.24357
0.24087
0.238345
0.235978
0.23375
0.231645
0.229647
0.227742
0.225919
0.224167
0.222481
0.220858
0.219302
0.217828
0.21646
0.215237
0.214212
0.213486
0.265255
0.298495
0.369381
0.430897
0.486624
0.538708
0.588277
0.636101
0.682801
0.728901
0.774843
0.820983
0.867595
0.914872
0.962932
1.01183
1.06156
1.11209
1.16333
1.2152
1.26758
1.32037
1.37348
1.42682
1.48031
1.53391
1.58756
1.64123
1.69491
1.74859
1.80228
1.856
1.9098
1.96376
2.01796
2.07254
2.1277
2.1837
2.24086
2.29963
2.36055
2.42429
2.49165
2.5635
2.64076
2.72425
2.81456
2.91254
3.01792
3.12934
3.24448
3.36026
3.473
3.57875
3.67357
3.75393
3.81695
3.86039
3.88304
3.88514
3.86761
3.83172
3.77879
3.7122
3.63477
3.54889
3.45659
3.35997
3.26101
3.16126
3.06189
2.96377
2.86767
2.77416
2.68361
2.59626
2.5122
2.4315
2.35412
2.28001
2.20904
2.1411
2.07603
2.01369
1.95393
1.89659
1.84153
1.78861
1.7377
1.68866
1.64139
1.59578
1.55172
1.50913
1.46791
1.42798
1.38928
1.35174
1.31528
1.27986
1.24541
1.21189
1.17926
1.14746
1.11646
1.08623
1.05674
1.02796
0.999875
0.972454
0.945685
0.919552
0.894039
0.869135
0.844827
0.821104
0.797956
0.775374
0.753348
0.731871
0.710934
0.69053
0.670652
0.651292
0.632445
0.614103
0.59626
0.578911
0.562049
0.545669
0.529765
0.514333
0.499367
0.484862
0.470814
0.457218
0.444071
0.431368
0.419105
0.407281
0.395891
0.384932
0.374403
0.3643
0.354621
0.345364
0.336527
0.328106
0.320098
0.312499
0.305305
0.298512
0.292111
0.286096
0.280458
0.275186
0.270268
0.26569
0.261437
0.257491
0.253835
0.25045
0.247315
0.24441
0.241715
0.239207
0.236868
0.234678
0.232619
0.230673
0.228825
0.227063
0.225375
0.223755
0.222201
0.22072
0.219325
0.218045
0.216904
0.215993
0.266402
0.289731
0.357477
0.416997
0.470924
0.521403
0.569577
0.616218
0.661947
0.707298
0.752726
0.798609
0.845237
0.892823
0.941498
0.991326
1.04231
1.09441
1.14756
1.20161
1.2564
1.31181
1.36772
1.42401
1.48056
1.53726
1.59402
1.65077
1.70741
1.7639
1.82016
1.87618
1.9319
1.98735
2.04253
2.09753
2.15247
2.20755
2.26309
2.31952
2.37743
2.43761
2.50106
2.56902
2.64293
2.72431
2.8145
2.91505
3.02622
3.1468
3.27427
3.40505
3.53468
3.65829
3.77098
3.8683
3.94661
4.00299
4.03529
4.04415
4.03079
3.997
3.94508
3.87795
3.79852
3.70953
3.61349
3.51264
3.40901
3.30426
3.19976
3.09654
2.99543
2.89701
2.80171
2.70979
2.62139
2.53654
2.45524
2.37739
2.3029
2.2316
2.16336
2.09801
2.03539
1.97533
1.91768
1.86229
1.80902
1.75774
1.70832
1.66064
1.61461
1.57012
1.52709
1.48542
1.44505
1.4059
1.3679
1.33099
1.29512
1.26022
1.22627
1.1932
1.16099
1.12959
1.09897
1.0691
1.03997
1.01153
0.983783
0.9567
0.930267
0.904468
0.879291
0.854721
0.830749
0.807363
0.784552
0.762308
0.740622
0.719486
0.69889
0.678827
0.659291
0.640273
0.621766
0.603764
0.58626
0.569248
0.552721
0.536674
0.521099
0.505992
0.491347
0.477158
0.463422
0.450132
0.437285
0.424876
0.412903
0.40136
0.390246
0.379557
0.369291
0.359445
0.350018
0.341007
0.33241
0.324224
0.316447
0.309076
0.302105
0.295531
0.289347
0.283546
0.278118
0.273053
0.268338
0.26396
0.259901
0.256146
0.252674
0.249467
0.246503
0.243762
0.241221
0.238861
0.23666
0.2346
0.232663
0.230831
0.229091
0.227433
0.22585
0.22434
0.222913
0.221583
0.220365
0.219328
0.264282
0.279889
0.344702
0.402535
0.454898
0.50392
0.550802
0.59634
0.64116
0.685797
0.730708
0.776272
0.822789
0.870473
0.919461
0.969815
1.02154
1.07457
1.12881
1.18412
1.24035
1.29733
1.35492
1.41295
1.47128
1.52976
1.58826
1.64665
1.70482
1.76265
1.82003
1.87688
1.9331
1.98864
2.04347
2.0976
2.15111
2.20416
2.25701
2.31008
2.36399
2.41959
2.47804
2.54088
2.61004
2.68773
2.77615
2.87762
2.99304
3.12117
3.2593
3.40333
3.54806
3.68772
3.81651
3.9292
4.02147
4.09027
4.13395
4.15235
4.14652
4.11839
4.07047
4.00572
3.92719
3.8379
3.74062
3.63784
3.53172
3.42409
3.31644
3.20993
3.10546
3.00369
2.90506
2.80988
2.7183
2.63038
2.5461
2.4654
2.38814
2.3142
2.24341
2.17562
2.11064
2.04831
1.98848
1.93099
1.8757
1.82246
1.77117
1.72169
1.67392
1.62776
1.58311
1.53989
1.49803
1.45744
1.41806
1.37982
1.34266
1.30654
1.27141
1.23721
1.2039
1.17145
1.13982
1.10898
1.0789
1.04956
1.02094
0.993003
0.965746
0.939148
0.913193
0.887867
0.863158
0.839054
0.815543
0.792615
0.770261
0.748471
0.727237
0.70655
0.686402
0.666785
0.647691
0.629114
0.611044
0.593476
0.576403
0.559817
0.543711
0.52808
0.512916
0.498214
0.483967
0.470169
0.456816
0.443903
0.431423
0.419374
0.40775
0.396549
0.385766
0.3754
0.365446
0.355903
0.346769
0.33804
0.329716
0.321793
0.31427
0.307142
0.300406
0.294057
0.288089
0.282494
0.277264
0.272387
0.267851
0.263641
0.259743
0.256137
0.252806
0.249729
0.246886
0.244256
0.241818
0.239551
0.237435
0.235453
0.233589
0.231827
0.230158
0.228576
0.227084
0.225689
0.224402
0.223264
0.258586
0.269034
0.33152
0.388322
0.439739
0.48783
0.533876
0.57872
0.623004
0.66726
0.711935
0.7574
0.803941
0.851767
0.901006
0.95171
1.00387
1.05742
1.11224
1.16819
1.22509
1.28277
1.34105
1.39974
1.45867
1.51765
1.57653
1.63515
1.69336
1.751
1.80794
1.86405
1.91921
1.97334
2.02637
2.0783
2.12918
2.17917
2.22855
2.27776
2.32746
2.37859
2.43245
2.49079
2.55588
2.63062
2.71802
2.82062
2.93925
3.07293
3.21888
3.37274
3.52892
3.68116
3.82317
3.94919
4.05448
4.13557
4.19048
4.21873
4.22119
4.19976
4.15706
4.09614
4.02023
3.9325
3.83592
3.73317
3.62655
3.518
3.40912
3.30116
3.19508
3.09157
2.99114
2.8941
2.80064
2.71083
2.62465
2.54206
2.46293
2.38713
2.31451
2.2449
2.17814
2.11407
2.05254
1.99338
1.93645
1.88163
1.82879
1.77781
1.72858
1.68101
1.635
1.59046
1.54732
1.5055
1.46493
1.42555
1.38731
1.35013
1.31398
1.2788
1.24456
1.2112
1.17871
1.14703
1.11614
1.08602
1.05664
1.02798
1.00001
0.97272
0.946092
0.920111
0.894763
0.870034
0.845913
0.82239
0.799453
0.777093
0.755301
0.734068
0.713385
0.693245
0.673639
0.654558
0.635997
0.617945
0.600397
0.583345
0.566781
0.550698
0.535088
0.519945
0.505262
0.491032
0.477249
0.463906
0.450998
0.438519
0.426464
0.414828
0.403607
0.392795
0.382391
0.372389
0.362787
0.353582
0.344771
0.336353
0.328324
0.320682
0.313424
0.306547
0.300047
0.293918
0.288155
0.28275
0.277694
0.272977
0.268586
0.264506
0.260724
0.25722
0.253978
0.250978
0.248201
0.245626
0.243235
0.241007
0.238926
0.236976
0.235144
0.233423
0.231807
0.230302
0.228915
0.227666
0.249012
0.257187
0.318133
0.3748
0.426228
0.474305
0.52037
0.565322
0.609822
0.654394
0.699466
0.745383
0.792408
0.840726
0.890447
0.941608
0.994186
1.0481
1.10323
1.15942
1.21649
1.27424
1.33247
1.39098
1.44956
1.50803
1.56619
1.62386
1.68087
1.73706
1.79226
1.84635
1.8992
1.95073
2.00087
2.04966
2.09717
2.1436
2.18929
2.23476
2.28077
2.32836
2.37898
2.43457
2.49773
2.57176
2.66028
2.7657
2.88856
3.02763
3.17987
3.34069
3.50436
3.66457
3.81494
3.94957
4.06352
4.15308
4.21604
4.2517
4.26077
4.24507
4.20723
4.15035
4.07773
3.99263
3.89813
3.79697
3.69154
3.58385
3.47554
3.36789
3.26191
3.15832
3.05764
2.9602
2.8662
2.77573
2.6888
2.60535
2.52528
2.44848
2.3748
2.30409
2.2362
2.17097
2.10825
2.0479
1.98979
1.93379
1.87979
1.82766
1.7773
1.72863
1.68154
1.63596
1.59181
1.54901
1.5075
1.46721
1.42809
1.39007
1.35311
1.31715
1.28216
1.24809
1.21489
1.18255
1.15102
1.12027
1.09029
1.06103
1.03249
1.00465
0.977473
0.950958
0.925087
0.899845
0.875221
0.851203
0.827781
0.804945
0.782685
0.760993
0.739859
0.719277
0.699236
0.67973
0.66075
0.642289
0.624338
0.606891
0.589938
0.573473
0.557488
0.541974
0.526925
0.512334
0.498192
0.484492
0.471229
0.458394
0.445983
0.433987
0.422403
0.411224
0.400445
0.390062
0.380069
0.370463
0.36124
0.352397
0.343931
0.335838
0.328115
0.32076
0.313769
0.307138
0.300864
0.29494
0.289361
0.284119
0.279206
0.274612
0.270324
0.266329
0.262613
0.259161
0.255956
0.252979
0.250214
0.247642
0.245248
0.243014
0.240928
0.23898
0.237163
0.235478
0.233928
0.232534
0.235267
0.244258
0.304499
0.362053
0.41473
0.464094
0.511464
0.557763
0.603652
0.649634
0.696101
0.74336
0.791638
0.841088
0.891796
0.943785
0.997021
1.05142
1.10686
1.16317
1.22017
1.27767
1.33544
1.39328
1.45096
1.50827
1.56501
1.62098
1.67599
1.72989
1.78252
1.83375
1.88349
1.93169
1.97837
2.02361
2.0676
2.11066
2.15324
2.19603
2.23994
2.28618
2.33639
2.39272
2.45808
2.53599
2.63026
2.74233
2.87186
3.01681
3.17358
3.33741
3.50281
3.66395
3.81503
3.95057
4.06584
4.15722
4.22245
4.26074
4.27265
4.25992
4.22509
4.17121
4.10155
4.01933
3.9276
3.82908
3.72614
3.62076
3.51456
3.40882
3.30452
3.20238
3.10292
3.00646
2.91323
2.82332
2.73674
2.65347
2.57342
2.49648
2.42253
2.35144
2.28308
2.21729
2.15396
2.09295
2.03413
1.9774
1.92265
1.86976
1.81865
1.76923
1.7214
1.6751
1.63025
1.58676
1.54459
1.50367
1.46393
1.42532
1.3878
1.3513
1.31579
1.28122
1.24755
1.21474
1.18277
1.15159
1.12118
1.09152
1.06257
1.03433
1.00677
0.979866
0.953614
0.927995
0.902996
0.878607
0.854817
0.831616
0.808995
0.786945
0.765458
0.744525
0.724139
0.704292
0.684977
0.666185
0.647909
0.63014
0.612873
0.596098
0.579807
0.563993
0.548647
0.533762
0.51933
0.505343
0.491793
0.478673
0.465975
0.453692
0.441817
0.430344
0.419265
0.408574
0.398266
0.388335
0.378777
0.369585
0.360756
0.352285
0.344168
0.336402
0.328983
0.321907
0.315171
0.30877
0.302699
0.296954
0.291529
0.286415
0.281606
0.277092
0.272863
0.268906
0.265209
0.261759
0.25854
0.255539
0.252741
0.250131
0.247698
0.24543
0.243322
0.24137
0.239575
0.237959
0.217195
0.230215
0.290644