/*--------------------------------*- C++ -*----------------------------------*\
| =========                 |                                                 |
| \\      /  F ield         | OpenFOAM: The Open Source CFD Toolbox           |
|  \\    /   O peration     | Version:  2.2.x                                 |
|   \\  /    A nd           | Web:      www.OpenFOAM.org                      |
|    \\/     M anipulation  |                                                 |
\*---------------------------------------------------------------------------*/
FoamFile
{
    version     2.0;
    format      ascii;
    class       volScalarField;
    location    "100";
    object      nut;
}
// * * * * * * * * * * * * * * * * * * * * * * * * * * * * * * * * * * * * * //

dimensions      [0 2 -1 0 0 0 0];

internalField   nonuniform List<scalar> 
12225
(
3.09427e-05
3.71939e-05
4.09452e-05
4.31411e-05
4.43753e-05
4.50123e-05
4.52786e-05
4.53166e-05
4.52158e-05
4.50326e-05
4.48022e-05
4.45465e-05
4.42791e-05
4.40081e-05
4.37376e-05
4.34693e-05
4.31992e-05
4.29417e-05
0.000116587
6.93396e-05
5.15749e-05
4.23844e-05
3.71238e-05
3.38912e-05
3.17993e-05
3.04007e-05
2.94514e-05
2.88089e-05
2.8385e-05
2.81225e-05
2.79824e-05
2.79373e-05
2.79669e-05
2.80552e-05
2.81886e-05
2.83267e-05
0.000365017
0.00022308
0.000162246
0.00012766
0.000105743
9.09046e-05
8.03163e-05
7.24391e-05
6.63824e-05
6.15998e-05
5.77395e-05
5.45651e-05
5.19116e-05
4.96588e-05
4.77139e-05
4.59953e-05
4.44122e-05
4.28851e-05
0.000644529
0.000478856
0.000378332
0.00031293
0.000267678
0.000234946
0.000210375
0.000191343
0.000176208
0.000163897
0.000153682
0.000145052
0.000137633
0.000131148
0.000125372
0.000120112
0.000115181
0.000110466
0.000789226
0.000696623
0.000611544
0.00054144
0.000485197
0.000440166
0.000403802
0.000374065
0.000349415
0.000328709
0.000311086
0.000295898
0.00028264
0.000270914
0.000260392
0.000250791
0.000241859
0.000233481
0.00083613
0.000801951
0.000758666
0.000713439
0.000670244
0.000630832
0.000595668
0.000564595
0.00053721
0.000513046
0.000491644
0.00047259
0.000455516
0.000440099
0.000426051
0.000413113
0.000401054
0.000389834
0.000848362
0.000838478
0.000822719
0.000802641
0.000780049
0.000756467
0.000732976
0.000710249
0.00068866
0.00066838
0.000649451
0.000631836
0.000615451
0.000600186
0.000585914
0.000572505
0.000559833
0.00054797
0.000850836
0.000847511
0.000841555
0.000832966
0.000822149
0.000809686
0.000796165
0.000782089
0.000767848
0.000753724
0.000739907
0.000726515
0.000713611
0.000701215
0.000689317
0.00067789
0.000666898
0.000656492
0.000851477
0.000850219
0.000847975
0.000844513
0.000839783
0.00083388
0.000826987
0.00081932
0.000811093
0.000802499
0.000793697
0.000784814
0.000775944
0.000767155
0.000758488
0.000749967
0.000741613
0.000733582
0.000851643
0.000851029
0.000850139
0.000848836
0.000847023
0.000844651
0.00084172
0.000838268
0.000834354
0.000830049
0.000825426
0.000820554
0.000815496
0.000810305
0.000805022
0.000799682
0.000794319
0.000789061
0.000851675
0.00085122
0.000850719
0.000850123
0.000849384
0.000848463
0.000847331
0.000845973
0.000844387
0.00084258
0.000840565
0.000838362
0.000835992
0.000833476
0.000830835
0.000828088
0.000825258
0.000822425
0.000851677
0.000851251
0.000850835
0.000850416
0.000849979
0.000849509
0.00084899
0.000848412
0.000847763
0.000847037
0.000846231
0.000845345
0.000844381
0.000843341
0.000842229
0.000841053
0.00083982
0.00083857
0.000851674
0.000851251
0.000850847
0.000850461
0.000850087
0.000849721
0.000849358
0.000848994
0.000848624
0.000848244
0.00084785
0.000847441
0.000847015
0.000846571
0.000846108
0.000845627
0.000845132
0.00084464
0.000851671
0.000851246
0.000850843
0.00085046
0.000850095
0.000849747
0.000849413
0.000849093
0.000848784
0.000848485
0.000848195
0.000847912
0.000847637
0.000847367
0.000847104
0.000846846
0.000846597
0.000846366
0.000851669
0.000851242
0.000850838
0.000850454
0.00085009
0.000849744
0.000849415
0.000849102
0.000848804
0.00084852
0.00084825
0.000847993
0.000847749
0.000847518
0.0008473
0.000847094
0.000846904
0.000846736
0.000851667
0.000851239
0.000850834
0.00085045
0.000850086
0.00084974
0.000849412
0.0008491
0.000848805
0.000848525
0.000848259
0.000848008
0.000847771
0.000847548
0.000847338
0.000847142
0.000846961
0.000846805
0.000851665
0.000851237
0.000850831
0.000850447
0.000850082
0.000849737
0.00084941
0.0008491
0.000848806
0.000848528
0.000848265
0.000848017
0.000847782
0.000847562
0.000847354
0.00084716
0.000846981
0.000846826
0.000851664
0.000851235
0.000850829
0.000850445
0.000850081
0.000849737
0.000849411
0.000849102
0.000848811
0.000848534
0.000848273
0.000848027
0.000847794
0.000847575
0.000847369
0.000847176
0.000846996
0.000846841
0.000851664
0.000851235
0.000850829
0.000850446
0.000850083
0.00084974
0.000849415
0.000849108
0.000848818
0.000848543
0.000848284
0.000848039
0.000847807
0.000847589
0.000847382
0.000847188
0.000847008
0.00084685
0.000851664
0.000851236
0.000850831
0.000850448
0.000850086
0.000849744
0.000849421
0.000849114
0.000848824
0.000848548
0.000848287
0.000848039
0.000847802
0.000847577
0.000847363
0.000847159
0.000846966
0.000846795
0.000851665
0.000851237
0.000850833
0.00085045
0.000850087
0.000849741
0.000849409
0.000849089
0.000848779
0.000848476
0.00084818
0.000847889
0.0008476
0.000847314
0.00084703
0.000846748
0.000846468
0.000846202
0.000851666
0.000851237
0.000850825
0.000850423
0.000850022
0.000849613
0.000849188
0.000848739
0.00084826
0.000847748
0.000847201
0.000846619
0.000846002
0.000845352
0.000844673
0.000843967
0.000843241
0.000842512
0.00085166
0.000851195
0.000850685
0.000850086
0.00084936
0.000848474
0.000847409
0.000846158
0.000844723
0.000843116
0.00084135
0.000839448
0.00083743
0.000835319
0.000833135
0.000830898
0.000828631
0.000826373
0.000851569
0.000850739
0.000849418
0.000847449
0.000844758
0.000841347
0.000837272
0.000832625
0.000827516
0.000822054
0.000816345
0.000810483
0.000804548
0.000798606
0.000792713
0.000786911
0.000781237
0.000775759
0.000850707
0.000847149
0.000840949
0.000832194
0.000821313
0.00080888
0.000795459
0.000781536
0.000767493
0.00075361
0.000740087
0.000727055
0.000714596
0.000702752
0.000691542
0.000680965
0.00067101
0.000661711
0.000844119
0.000825269
0.000798661
0.000767997
0.000736094
0.000704794
0.000675131
0.000647584
0.000622306
0.000599269
0.000578351
0.000559386
0.000542198
0.000526612
0.000512461
0.000499596
0.000487884
0.000477249
0.000803445
0.000727272
0.000652977
0.000588198
0.00053357
0.000487994
0.000449953
0.000418028
0.000391046
0.000368071
0.000348367
0.000331349
0.000316555
0.000303615
0.000292236
0.000282176
0.000273246
0.000265309
0.000625902
0.000466302
0.00037053
0.000306724
0.000261447
0.000228049
0.000202633
0.000182783
0.000166953
0.000154106
0.000143526
0.000134701
0.000127259
0.000120921
0.000115479
0.000110772
0.00010668
0.000103126
0.000254191
0.000158511
0.000118235
9.49265e-05
7.99388e-05
6.97412e-05
6.24993e-05
5.71846e-05
5.31846e-05
5.01133e-05
4.77168e-05
4.58224e-05
4.4309e-05
4.30898e-05
4.21012e-05
4.12963e-05
4.06396e-05
4.01108e-05
3.69327e-05
4.20257e-05
4.57639e-05
4.86749e-05
5.10835e-05
5.30507e-05
5.46365e-05
5.58983e-05
5.68886e-05
5.76541e-05
5.82351e-05
5.86659e-05
5.89751e-05
5.91866e-05
5.93199e-05
5.93912e-05
5.94137e-05
5.93972e-05
1.2589e-05
3.75776e-05
4.35425e-05
4.83217e-05
5.24304e-05
5.6067e-05
5.93542e-05
6.23689e-05
6.51626e-05
6.77719e-05
7.02238e-05
7.2539e-05
7.47339e-05
7.68215e-05
7.88128e-05
8.07165e-05
8.25401e-05
8.42898e-05
8.59709e-05
8.75879e-05
8.91445e-05
9.0644e-05
9.20889e-05
9.34816e-05
9.48237e-05
9.61167e-05
9.7362e-05
9.85603e-05
9.97126e-05
0.000100819
0.000101881
0.000102897
0.000103868
0.000104795
0.000105676
0.000106512
0.000107303
0.000108048
0.000108747
0.000109399
0.000110005
0.000110564
0.000111077
0.000111543
0.000111964
0.000112342
0.000112698
0.000112998
0.000113218
0.000113354
0.000113402
0.000113358
0.000113219
0.000112982
0.000112646
0.00011221
0.000111675
0.000111043
0.000110317
0.000109501
0.000108599
0.000107619
0.000106567
0.00010545
0.000104276
0.000103053
0.00010179
0.000100493
9.91714e-05
9.78306e-05
9.64777e-05
9.51186e-05
9.37585e-05
9.24022e-05
9.10536e-05
8.97162e-05
8.83929e-05
8.70859e-05
8.57968e-05
8.45269e-05
8.3277e-05
8.20475e-05
8.08385e-05
7.965e-05
7.84817e-05
7.73326e-05
7.62023e-05
7.50905e-05
7.39956e-05
7.29148e-05
7.18492e-05
7.07991e-05
6.97577e-05
6.87257e-05
6.77114e-05
6.67122e-05
6.56992e-05
6.46537e-05
6.36452e-05
6.26959e-05
6.16663e-05
6.06859e-05
6.00521e-05
5.94884e-05
5.89501e-05
5.84276e-05
5.79176e-05
5.74197e-05
5.69333e-05
5.64575e-05
5.5992e-05
5.55368e-05
5.50919e-05
5.46572e-05
5.42325e-05
5.38177e-05
5.34128e-05
5.3018e-05
5.26335e-05
5.22595e-05
5.18962e-05
5.15437e-05
5.12022e-05
5.08717e-05
5.05525e-05
5.02447e-05
4.99486e-05
4.96645e-05
4.93924e-05
4.91326e-05
4.88853e-05
4.86505e-05
4.84283e-05
4.82189e-05
4.80222e-05
4.78384e-05
4.76673e-05
4.75089e-05
4.73632e-05
4.72302e-05
4.71097e-05
4.70014e-05
4.69051e-05
4.68206e-05
4.67478e-05
4.66864e-05
4.66356e-05
4.65951e-05
4.65645e-05
4.65436e-05
4.65318e-05
4.65285e-05
4.65334e-05
4.65457e-05
4.65647e-05
4.659e-05
4.66211e-05
4.66576e-05
4.66987e-05
4.6744e-05
4.67926e-05
4.68441e-05
4.68979e-05
4.69535e-05
4.70103e-05
4.70676e-05
4.71248e-05
4.71807e-05
4.72348e-05
4.7286e-05
4.73327e-05
4.73735e-05
4.74059e-05
4.74272e-05
4.74338e-05
4.74229e-05
4.73859e-05
4.7308e-05
4.71703e-05
4.68506e-05
1.78109e-05
7.13024e-05
9.35716e-05
0.00010632
0.000116698
0.000126145
0.0001351
0.000143775
0.000152298
0.000160753
0.000169197
0.000177669
0.000186198
0.000194805
0.000203509
0.000212323
0.000221264
0.000230346
0.000239584
0.000248997
0.000258604
0.000268425
0.000278483
0.000288801
0.000299405
0.000310321
0.000321575
0.000333192
0.000345199
0.000357619
0.000370473
0.000383778
0.000397546
0.000411785
0.000426493
0.000441659
0.000457259
0.000473257
0.000489598
0.000506209
0.000522996
0.00053984
0.000556592
0.000573073
0.000589069
0.000604323
0.000618374
0.000631725
0.000644546
0.000656744
0.000668203
0.000678811
0.000688467
0.000697078
0.000704571
0.000710888
0.000715994
0.000719876
0.000722541
0.000724018
0.000724354
0.000723611
0.000721868
0.00071921
0.00071573
0.000711524
0.000706689
0.00070132
0.000695508
0.000689337
0.000682887
0.000676227
0.000669421
0.000662522
0.000655578
0.000648629
0.000641704
0.000634831
0.000628028
0.000621309
0.000614684
0.000608156
0.000601727
0.000595398
0.000589163
0.000583013
0.000576941
0.000570942
0.000565002
0.000559102
0.000553237
0.000547409
0.000541587
0.000535737
0.000529924
0.000524198
0.000518375
0.000512356
0.000506271
0.000500139
0.000493583
0.000486124
0.000478284
0.000470298
0.000462279
0.000454279
0.000446321
0.000438421
0.000430593
0.000422841
0.00041517
0.000407582
0.00040008
0.000392667
0.000385343
0.000378113
0.000370978
0.000363943
0.000357009
0.000350177
0.000343449
0.000336828
0.000330316
0.000323916
0.000317629
0.000311458
0.000305405
0.000299472
0.00029366
0.00028797
0.000282405
0.000276965
0.00027165
0.000266463
0.000261404
0.000256472
0.000251669
0.000246994
0.000242447
0.000238027
0.000233732
0.000229563
0.000225517
0.000221592
0.000217785
0.000214095
0.00021052
0.000207056
0.0002037
0.000200449
0.000197299
0.000194247
0.000191288
0.00018842
0.000185638
0.000182939
0.000180317
0.00017777
0.000175293
0.000172884
0.000170538
0.000168253
0.000166026
0.000163852
0.00016173
0.000159656
0.000157629
0.000155645
0.000153702
0.000151796
0.000149926
0.000148088
0.000146278
0.00014449
0.000142614
0.000140552
0.000138255
0.00013557
0.000132143
0.000127001
2.10107e-05
9.71667e-05
0.00013867
0.000162572
0.000182183
0.000200701
0.000218978
0.000237307
0.000255813
0.000274559
0.00029357
0.000312851
0.000332395
0.000352191
0.000372224
0.000392481
0.000412953
0.000433631
0.000454515
0.000475606
0.000496913
0.000518445
0.000540216
0.000562242
0.000584539
0.000607122
0.000630006
0.000653201
0.000676715
0.000700548
0.000724695
0.000749141
0.000773863
0.000798828
0.000823992
0.000849297
0.000874675
0.000900043
0.000925305
0.000950355
0.000975071
0.000999321
0.00102296
0.00104584
0.00106778
0.00108863
0.00110814
0.00112672
0.00114434
0.00116084
0.00117609
0.00118993
0.00120224
0.00121289
0.00122181
0.00122894
0.00123425
0.00123774
0.00123944
0.0012394
0.00123772
0.0012345
0.00122985
0.00122391
0.0012168
0.00120868
0.00119967
0.00118991
0.00117952
0.00116864
0.00115735
0.00114577
0.00113396
0.00112202
0.00111
0.00109795
0.00108592
0.00107395
0.00106204
0.00105023
0.00103853
0.00102694
0.00101546
0.00100409
0.000992813
0.000981625
0.000970509
0.000959456
0.000948452
0.000937471
0.000926492
0.000915536
0.000904598
0.000893587
0.000882565
0.000871626
0.000860734
0.00084987
0.000838997
0.000828078
0.000816996
0.000805585
0.000793939
0.000782165
0.000770343
0.000758525
0.000746742
0.000735015
0.000723359
0.000711783
0.000700297
0.000688905
0.000677614
0.000666429
0.000655355
0.000644396
0.000633557
0.000622844
0.00061226
0.00060181
0.000591499
0.000581331
0.000571309
0.000561437
0.000551721
0.000542163
0.000532768
0.000523539
0.000514478
0.00050559
0.000496876
0.000488338
0.000479979
0.000471799
0.000463801
0.000455984
0.000448349
0.000440897
0.000433627
0.000426537
0.000419626
0.000412891
0.000406331
0.000399943
0.000393721
0.000387662
0.000381762
0.000376017
0.000370419
0.000364965
0.000359647
0.000354458
0.000349394
0.000344445
0.000339606
0.000334871
0.000330232
0.000325683
0.000321216
0.000316828
0.00031251
0.000308258
0.000304068
0.000299933
0.00029585
0.000291812
0.000287817
0.000283859
0.000279932
0.000276031
0.00027215
0.000268279
0.000264409
0.000260525
0.000256589
0.000252258
0.000247487
0.000242026
0.000235251
0.000225968
2.34721e-05
0.000115847
0.000177331
0.000213903
0.000243763
0.000272076
0.000300259
0.000328714
0.00035755
0.000386769
0.000416329
0.000446169
0.00047622
0.000506412
0.000536677
0.000566954
0.000597191
0.000627343
0.000657375
0.000687258
0.000716972
0.000746504
0.000775844
0.000804987
0.000833931
0.000862673
0.000891214
0.000919552
0.000947686
0.000975611
0.00100332
0.00103081
0.00105807
0.00108508
0.00111182
0.00113829
0.00116445
0.00119027
0.00121572
0.00124076
0.00126533
0.00128937
0.00131281
0.00133556
0.0013575
0.00137853
0.00139852
0.00141762
0.0014357
0.00145261
0.00146816
0.00148219
0.00149455
0.0015051
0.00151374
0.00152041
0.00152506
0.00152772
0.00152841
0.00152721
0.00152421
0.00151954
0.00151333
0.00150573
0.00149689
0.00148697
0.00147612
0.00146449
0.0014522
0.00143939
0.00142616
0.00141262
0.00139886
0.00138494
0.00137093
0.00135688
0.00134284
0.00132883
0.00131487
0.00130099
0.00128718
0.00127346
0.00125981
0.00124624
0.00123272
0.00121925
0.0012058
0.00119236
0.00117893
0.00116548
0.00115195
0.00113839
0.00112487
0.00111137
0.00109793
0.00108458
0.00107131
0.00105811
0.00104496
0.00103183
0.00101866
0.0010054
0.000992041
0.000978625
0.000965183
0.000951747
0.000938343
0.000924989
0.0009117
0.000898487
0.000885359
0.000872327
0.000859396
0.000846573
0.000833867
0.000821282
0.000808826
0.000796506
0.000784328
0.000772299
0.000760426
0.000748714
0.000737169
0.000725798
0.000714607
0.0007036
0.000692784
0.000682164
0.000671744
0.000661529
0.000651522
0.000641727
0.000632147
0.000622784
0.000613641
0.000604718
0.000596016
0.000587536
0.000579276
0.000571235
0.00056341
0.000555798
0.000548396
0.0005412
0.000534202
0.000527397
0.000520777
0.000514336
0.000508063
0.00050195
0.000495987
0.000490164
0.000484469
0.00047889
0.000473418
0.000468042
0.000462748
0.000457529
0.000452371
0.000447265
0.000442203
0.000437175
0.000432173
0.000427189
0.000422216
0.000417247
0.000412276
0.000407295
0.000402298
0.000397275
0.000392218
0.000387114
0.000381948
0.000376702
0.000371338
0.000365548
0.000359159
0.000351877
0.000343008
0.000331623
2.54088e-05
0.000128527
0.000209172
0.000258857
0.000298994
0.000336713
0.000374101
0.000411728
0.000449697
0.000487955
0.00052639
0.000564874
0.000603278
0.000641476
0.000679356
0.000716816
0.000753771
0.000790147
0.000825886
0.000860941
0.000895278
0.000928875
0.000961716
0.000993799
0.00102513
0.00105571
0.00108556
0.00111471
0.00114318
0.00117101
0.00119823
0.0012249
0.00125104
0.00127672
0.00130198
0.00132686
0.00135141
0.00137565
0.00139963
0.00142334
0.00144678
0.00146993
0.00149274
0.00151514
0.00153702
0.00155825
0.00157872
0.00159841
0.00161715
0.00163473
0.00165093
0.00166551
0.0016783
0.00168911
0.00169783
0.00170434
0.00170863
0.00171068
0.00171055
0.00170832
0.00170412
0.0016981
0.00169043
0.00168128
0.00167084
0.00165929
0.00164679
0.00163352
0.00161963
0.00160524
0.00159048
0.00157545
0.00156023
0.0015449
0.00152951
0.00151413
0.00149877
0.00148346
0.00146822
0.00145306
0.00143799
0.00142298
0.00140803
0.00139314
0.00137828
0.00136344
0.0013486
0.00133369
0.00131877
0.00130388
0.001289
0.00127417
0.00125942
0.00124477
0.00123021
0.00121576
0.0012014
0.00118714
0.00117295
0.00115883
0.00114474
0.00113064
0.00111653
0.0011024
0.00108827
0.00107416
0.00106007
0.00104603
0.00103205
0.00101814
0.00100431
0.00099056
0.000976913
0.000963371
0.000949944
0.00093664
0.000923466
0.000910432
0.000897547
0.00088482
0.000872259
0.000859872
0.000847668
0.000835656
0.000823845
0.000812241
0.000800854
0.00078969
0.000778757
0.000768062
0.000757611
0.000747409
0.000737462
0.000727775
0.000718352
0.000709194
0.000700306
0.000691686
0.000683337
0.000675256
0.000667442
0.000659891
0.000652599
0.000645561
0.000638769
0.000632214
0.000625887
0.000619777
0.000613871
0.000608155
0.000602615
0.000597235
0.000591998
0.000586888
0.000581885
0.000576974
0.000572135
0.000567351
0.000562605
0.000557881
0.000553163
0.000548435
0.000543686
0.000538903
0.000534073
0.000529187
0.000524235
0.000519207
0.000514093
0.000508883
0.000503564
0.000498122
0.00049254
0.000486795
0.000480853
0.000474562
0.000467453
0.000459369
0.000449651
0.000437708
2.69323e-05
0.000136079
0.000233864
0.000296312
0.000346143
0.000392307
0.000437643
0.000482954
0.000528378
0.000573826
0.000619138
0.000664135
0.000708642
0.0007525
0.000795567
0.000837722
0.000878862
0.000918909
0.000957799
0.00099549
0.00103196
0.00106719
0.00110119
0.00113399
0.00116561
0.0011961
0.00122552
0.00125394
0.00128143
0.00130808
0.00133398
0.00135923
0.00138393
0.00140818
0.00143208
0.00145572
0.00147919
0.00150255
0.00152588
0.00154921
0.00157255
0.00159589
0.00161918
0.00164233
0.00166524
0.00168773
0.00170967
0.00173092
0.00175127
0.00177044
0.00178813
0.00180407
0.00181798
0.00182965
0.00183889
0.00184559
0.00184968
0.00185117
0.00185011
0.00184662
0.00184086
0.00183303
0.00182334
0.00181202
0.00179931
0.00178543
0.00177059
0.00175498
0.00173878
0.00172215
0.00170523
0.00168811
0.0016709
0.00165365
0.00163644
0.00161931
0.00160228
0.00158535
0.00156855
0.00155188
0.00153534
0.00151889
0.00150253
0.00148621
0.00146993
0.00145371
0.00143759
0.00142153
0.00140558
0.00138976
0.00137407
0.00135851
0.00134309
0.00132781
0.00131267
0.00129767
0.00128279
0.00126802
0.00125336
0.00123879
0.00122429
0.00120983
0.00119539
0.00118097
0.00116656
0.00115218
0.00113783
0.00112352
0.00110926
0.00109506
0.00108093
0.00106688
0.00105291
0.00103905
0.00102529
0.00101164
0.000998125
0.000984743
0.000971507
0.00095843
0.00094552
0.00093279
0.00092025
0.000907911
0.000895786
0.000883885
0.000872219
0.0008608
0.000849637
0.000838742
0.000828124
0.000817793
0.000807757
0.000798026
0.000788607
0.000779507
0.000770731
0.000762284
0.000754168
0.000746386
0.000738939
0.000731825
0.000725041
0.000718582
0.000712443
0.000706613
0.000701081
0.000695835
0.000690859
0.000686136
0.000681645
0.000677365
0.000673273
0.000669344
0.000665553
0.000661872
0.000658275
0.000654734
0.000651223
0.000647714
0.000644185
0.00064061
0.000636968
0.000633239
0.000629405
0.000625448
0.000621355
0.00061711
0.000612702
0.000608115
0.000603336
0.000598348
0.000593134
0.00058767
0.000581927
0.000575827
0.000568875
0.000560914
0.000551395
0.000540016
2.81201e-05
0.000139335
0.00025144
0.00032578
0.000384438
0.0004379
0.000489802
0.000541251
0.000592468
0.000643366
0.000693759
0.000743439
0.000792208
0.000839891
0.000886336
0.000931422
0.000975052
0.00101716
0.0010577
0.00109664
0.001134
0.00116979
0.00120405
0.00123684
0.00126822
0.0012983
0.00132717
0.00135494
0.00138173
0.00140766
0.00143287
0.00145749
0.00148164
0.00150547
0.0015291
0.00155263
0.00157617
0.00159982
0.00162364
0.00164767
0.00167195
0.00169646
0.00172115
0.00174594
0.00177068
0.00179519
0.0018193
0.00184281
0.00186547
0.00188691
0.00190679
0.00192473
0.00194039
0.00195347
0.00196371
0.00197095
0.00197509
0.00197611
0.00197408
0.00196915
0.00196151
0.00195143
0.00193917
0.00192504
0.00190933
0.00189234
0.00187432
0.00185553
0.00183618
0.00181646
0.00179651
0.00177649
0.00175648
0.00173655
0.00171677
0.00169718
0.0016778
0.00165863
0.00163969
0.00162094
0.00160234
0.00158395
0.00156579
0.00154785
0.00153012
0.00151263
0.00149539
0.00147837
0.00146158
0.00144502
0.00142869
0.00141256
0.00139665
0.00138093
0.0013654
0.00135004
0.00133485
0.0013198
0.00130489
0.0012901
0.0012754
0.00126078
0.00124621
0.00123168
0.00121718
0.00120272
0.0011883
0.00117392
0.00115958
0.00114529
0.00113107
0.00111691
0.00110282
0.00108882
0.00107491
0.0010611
0.0010474
0.00103383
0.00102039
0.0010071
0.000993961
0.000980997
0.000968218
0.000955636
0.000943267
0.000931123
0.000919221
0.000907573
0.000896194
0.000885099
0.000874303
0.000863819
0.000853662
0.000843844
0.000834379
0.000825279
0.000816556
0.000808219
0.000800276
0.000792737
0.000785606
0.00077889
0.000772588
0.0007667
0.000761224
0.000756155
0.000751482
0.000747194
0.000743275
0.000739707
0.000736466
0.000733528
0.000730863
0.00072844
0.000726223
0.000724177
0.000722264
0.000720443
0.000718677
0.000716924
0.00071515
0.000713314
0.000711385
0.00070933
0.000707121
0.00070473
0.000702136
0.000699316
0.000696252
0.000692926
0.000689322
0.000685421
0.000681205
0.000676653
0.000671741
0.000666415
0.000660303
0.000653204
0.000644702
0.000634708
2.9026e-05
0.000139099
0.000262271
0.000347291
0.000413818
0.000473452
0.000530626
0.000586812
0.000642372
0.000697258
0.000751286
0.000804242
0.000855921
0.000906147
0.000954776
0.0010017
0.00104684
0.00109016
0.00113163
0.00117128
0.00120913
0.00124524
0.00127968
0.00131257
0.00134399
0.00137408
0.00140297
0.0014308
0.00145771
0.00148385
0.00150936
0.0015344
0.0015591
0.00158359
0.001608
0.00163244
0.00165701
0.00168179
0.00170686
0.00173227
0.00175804
0.00178417
0.00181062
0.00183731
0.0018641
0.0018908
0.00191724
0.0019432
0.00196841
0.00199245
0.00201491
0.00203532
0.00205324
0.00206826
0.00208004
0.00208832
0.00209294
0.00209384
0.00209109
0.00208482
0.00207529
0.00206281
0.00204773
0.00203042
0.00201126
0.00199061
0.00196882
0.00194619
0.001923
0.00189948
0.00187581
0.00185215
0.00182861
0.00180531
0.00178231
0.00175957
0.00173713
0.00171508
0.00169348
0.00167229
0.00165151
0.00163117
0.00161128
0.00159179
0.00157271
0.00155401
0.0015357
0.00151774
0.00150012
0.00148284
0.00146586
0.00144918
0.00143278
0.00141664
0.00140075
0.00138508
0.00136962
0.00135435
0.00133926
0.00132431
0.0013095
0.00129479
0.00128017
0.00126563
0.00125114
0.0012367
0.00122231
0.00120796
0.00119366
0.00117941
0.00116521
0.00115107
0.00113699
0.00112297
0.00110904
0.00109518
0.00108142
0.00106776
0.00105421
0.00104078
0.0010275
0.00101436
0.00100139
0.000988599
0.000976003
0.000963618
0.00095146
0.000939547
0.000927897
0.000916527
0.000905456
0.000894701
0.000884283
0.000874219
0.000864528
0.000855228
0.000846337
0.000837871
0.000829848
0.000822282
0.000815187
0.000808576
0.00080246
0.000796844
0.000791734
0.000787134
0.000783039
0.000779444
0.000776338
0.000773707
0.00077153
0.000769781
0.00076843
0.000767442
0.000766775
0.000766386
0.000766225
0.000766243
0.000766385
0.000766598
0.000766828
0.000767021
0.000767128
0.000767099
0.000766892
0.000766466
0.000765785
0.000764818
0.000763536
0.000761915
0.000759933
0.000757571
0.000754809
0.000751629
0.000748011
0.000743925
0.000739193
0.000733438
0.00072649
0.000718389
2.96878e-05
0.000136123
0.000266961
0.000361231
0.000434687
0.000499502
0.000560847
0.000620609
0.000679342
0.000737078
0.000793663
0.000848892
0.00090257
0.000954528
0.00100464
0.00105281
0.001099
0.00114319
0.00118538
0.00122564
0.00126401
0.00130061
0.00133553
0.0013689
0.00140086
0.00143156
0.00146114
0.00148976
0.00151758
0.00154475
0.00157141
0.0015977
0.00162375
0.00164968
0.0016756
0.00170159
0.00172774
0.00175413
0.0017808
0.00180781
0.00183518
0.00186291
0.00189098
0.00191933
0.00194785
0.00197636
0.00200473
0.00203279
0.00206028
0.0020868
0.00211186
0.00213493
0.00215546
0.00217292
0.00218682
0.00219679
0.00220254
0.00220396
0.00220103
0.00219391
0.00218285
0.0021682
0.0021504
0.00212991
0.0021072
0.00208272
0.00205687
0.00203004
0.00200262
0.00197492
0.0019471
0.00191926
0.00189163
0.00186447
0.00183786
0.00181181
0.00178636
0.00176158
0.00173747
0.00171403
0.00169122
0.00166904
0.00164746
0.00162647
0.00160602
0.0015861
0.00156668
0.00154774
0.00152924
0.00151116
0.00149348
0.00147618
0.00145924
0.00144262
0.00142632
0.0014103
0.00139454
0.00137903
0.00136374
0.00134864
0.00133372
0.00131894
0.0013043
0.00128976
0.00127531
0.00126095
0.00124665
0.00123241
0.00121823
0.0012041
0.00119003
0.001176
0.00116203
0.00114812
0.00113427
0.00112048
0.00110677
0.00109313
0.00107958
0.00106613
0.00105279
0.00103957
0.00102649
0.00101356
0.00100079
0.000988208
0.000975823
0.000963655
0.000951724
0.00094005
0.000928654
0.000917556
0.000906779
0.000896346
0.000886278
0.0008766
0.000867334
0.000858503
0.000850133
0.000842244
0.000834859
0.000828001
0.000821687
0.000815937
0.000810765
0.000806184
0.000802205
0.00079883
0.00079606
0.000793889
0.000792305
0.000791291
0.000790821
0.000790862
0.000791373
0.000792309
0.000793615
0.000795233
0.000797097
0.000799141
0.000801294
0.000803486
0.000805648
0.000807712
0.000809615
0.000811298
0.000812709
0.000813799
0.000814527
0.000814859
0.000814762
0.000814213
0.000813189
0.000811673
0.000809652
0.000807108
0.000803982
0.000799911
0.000794825
0.00078885
3.01318e-05
0.000131083
0.00026626
0.000368208
0.000447732
0.000516936
0.000581599
0.000644051
0.000705085
0.00076485
0.000823249
0.000880102
0.000935228
0.000988474
0.00103973
0.00108891
0.001136
0.00118101
0.00122396
0.00126495
0.00130405
0.00134138
0.00137709
0.00141132
0.00144423
0.00147597
0.0015067
0.0015366
0.0015658
0.00159446
0.00162272
0.00165069
0.00167849
0.00170622
0.00173396
0.00176178
0.00178973
0.00181786
0.0018462
0.00187478
0.00190361
0.00193268
0.00196198
0.00199146
0.00202104
0.00205058
0.00208
0.00210928
0.00213824
0.00216656
0.00219377
0.00221931
0.00224252
0.00226274
0.00227933
0.0022917
0.00229942
0.00230219
0.00229995
0.00229276
0.00228088
0.00226466
0.00224459
0.00222125
0.00219527
0.00216715
0.00213729
0.00210616
0.0020744
0.00204244
0.00201053
0.00197886
0.00194768
0.00191717
0.00188742
0.00185847
0.00183036
0.0018031
0.0017767
0.00175114
0.00172639
0.00170242
0.00167919
0.00165668
0.00163485
0.00161366
0.00159307
0.00157306
0.00155359
0.00153464
0.00151617
0.00149816
0.00148058
0.0014634
0.00144659
0.00143014
0.00141402
0.0013982
0.00138266
0.00136737
0.0013523
0.00133744
0.00132275
0.00130822
0.00129382
0.00127954
0.00126536
0.00125127
0.00123726
0.00122332
0.00120944
0.00119562
0.00118186
0.00116815
0.00115449
0.00114089
0.00112734
0.00111386
0.00110044
0.00108709
0.00107383
0.00106066
0.00104759
0.00103464
0.00102181
0.00100914
0.000996624
0.000984289
0.000972154
0.000960238
0.000948562
0.000937149
0.000926021
0.000915204
0.000904722
0.000894602
0.000884869
0.000875553
0.00086668
0.00085828
0.000850381
0.000843012
0.0008362
0.000829974
0.000824359
0.00081938
0.000815057
0.000811409
0.000808448
0.000806184
0.000804618
0.000803745
0.000803552
0.000804018
0.000805111
0.000806791
0.000809007
0.0008117
0.000814803
0.00081824
0.00082193
0.000825789
0.00082973
0.000833667
0.000837518
0.000841199
0.00084464
0.000847771
0.000850532
0.000852873
0.00085475
0.000856125
0.000856972
0.000857268
0.000857
0.000856161
0.000854732
0.000852495
0.000849373
0.000845539
3.03735e-05
0.000124533
0.000260913
0.000368904
0.000453755
0.000526805
0.000594233
0.000658797
0.000721567
0.000782849
0.000842625
0.000900756
0.00095708
0.00101145
0.00106376
0.00111395
0.001162
0.00120793
0.0012518
0.00129368
0.00133369
0.00137196
0.00140865
0.00144392
0.00147793
0.00151085
0.00154286
0.00157411
0.00160476
0.00163495
0.0016648
0.00169443
0.00172394
0.00175339
0.00178286
0.00181239
0.00184203
0.00187177
0.00190164
0.00193163
0.0019617
0.00199183
0.00202197
0.00205205
0.00208197
0.00211163
0.0021409
0.00217003
0.00219908
0.00222791
0.00225619
0.00228344
0.00230899
0.00233206
0.00235177
0.0023673
0.00237791
0.00238306
0.00238253
0.00237632
0.00236463
0.00234776
0.00232608
0.00230048
0.00227177
0.00224062
0.00220762
0.00217336
0.00213843
0.00210326
0.0020682
0.00203352
0.00199944
0.00196613
0.0019337
0.00190221
0.00187171
0.0018422
0.00181368
0.00178613
0.00175951
0.0017338
0.00170895
0.00168492
0.00166167
0.00163916
0.00161736
0.00159621
0.0015757
0.00155578
0.00153643
0.00151761
0.0014993
0.00148146
0.00146407
0.0014471
0.00143052
0.00141432
0.00139845
0.0013829
0.00136763
0.00135263
0.00133786
0.0013233
0.00130892
0.00129471
0.00128065
0.00126672
0.0012529
0.00123918
0.00122555
0.00121199
0.00119851
0.00118508
0.00117172
0.0011584
0.00114514
0.00113193
0.00111877
0.00110566
0.00109262
0.00107964
0.00106673
0.00105391
0.00104119
0.00102857
0.00101608
0.00100373
0.000991531
0.000979509
0.000967684
0.000956075
0.000944706
0.000933601
0.000922786
0.000912286
0.000902131
0.000892348
0.000882969
0.000874025
0.000865548
0.000857571
0.000850127
0.00084325
0.000836975
0.000831333
0.000826357
0.000822076
0.000818516
0.0008157
0.000813646
0.000812365
0.000811861
0.000812128
0.000813152
0.000814907
0.000817355
0.000820448
0.000824124
0.000828312
0.000832929
0.000837885
0.000843085
0.000848429
0.000853815
0.000859146
0.000864324
0.000869262
0.000873878
0.000878099
0.000881864
0.000885121
0.000887827
0.000889953
0.00089148
0.000892401
0.000892714
0.000892364
0.000891149
0.00088934
3.04341e-05
0.000115668