/*--------------------------------*- C++ -*----------------------------------*\
| =========                 |                                                 |
| \\      /  F ield         | OpenFOAM: The Open Source CFD Toolbox           |
|  \\    /   O peration     | Version:  2.2.x                                 |
|   \\  /    A nd           | Web:      www.OpenFOAM.org                      |
|    \\/     M anipulation  |                                                 |
\*---------------------------------------------------------------------------*/
FoamFile
{
    version     2.0;
    format      ascii;
    class       volScalarField;
    location    "100";
    object      p;
}
// * * * * * * * * * * * * * * * * * * * * * * * * * * * * * * * * * * * * * //

dimensions      [0 2 -2 0 0 0 0];

internalField   nonuniform List<scalar> 
12225
(
3.75549
1.05444
0.215391
-0.0106578
-0.15674
-0.275289
-0.361414
-0.422607
-0.466638
-0.496858
-0.514097
-0.518137
-0.507987
-0.481656
-0.43566
-0.363526
-0.252518
-0.00639818
-0.0330992
-0.384262
-0.486457
-0.427613
-0.416619
-0.442901
-0.473646
-0.500083
-0.521409
-0.536396
-0.543229
-0.540088
-0.525007
-0.495462
-0.447873
-0.377111
-0.279447
-0.190766
0.119433
0.278059
0.0848348
-0.03653
-0.142166
-0.245444
-0.33067
-0.395855
-0.444825
-0.479867
-0.501608
-0.509906
-0.504033
-0.482555
-0.443222
-0.383364
-0.302813
-0.220241
0.203307
0.218006
-0.0459459
-0.201011
-0.295232
-0.37416
-0.436555
-0.482458
-0.515552
-0.53791
-0.549856
-0.55094
-0.540264
-0.516518
-0.478095
-0.423796
-0.35498
-0.28418
0.165887
0.120399
-0.0833192
-0.206827
-0.282191
-0.349623
-0.407914
-0.454218
-0.48984
-0.51578
-0.531951
-0.537805
-0.532601
-0.515492
-0.485717
-0.443288
-0.390241
-0.334635
0.0901624
0.0431589
-0.108779
-0.219457
-0.295294
-0.362938
-0.42193
-0.469437
-0.506219
-0.533273
-0.550791
-0.558562
-0.556264
-0.543622
-0.520659
-0.488243
-0.448797
-0.408376
0.0223187
-0.016427
-0.135126
-0.236444
-0.311132
-0.376186
-0.432844
-0.479217
-0.515797
-0.543454
-0.562497
-0.572902
-0.574657
-0.567905
-0.553243
-0.532038
-0.506824
-0.482222
-0.031773
-0.0654022
-0.163866
-0.255831
-0.327465
-0.389849
-0.44465
-0.490471
-0.527517
-0.556444
-0.577588
-0.591062
-0.59709
-0.596127
-0.589108
-0.577654
-0.564283
-0.552852
-0.0783358
-0.108413
-0.191471
-0.274699
-0.343024
-0.403062
-0.456349
-0.501796
-0.539389
-0.56963
-0.59286
-0.609343
-0.619473
-0.623949
-0.623897
-0.621058
-0.617872
-0.617531
-0.127654
-0.154158
-0.223129
-0.297285
-0.361742
-0.419275
-0.471017
-0.516138
-0.554458
-0.586331
-0.612115
-0.632192
-0.647127
-0.657785
-0.665409
-0.671765
-0.679123
-0.690069
-0.179231
-0.202091
-0.258891
-0.324106
-0.384185
-0.439047
-0.489249
-0.534129
-0.573403
-0.607271
-0.636113
-0.660396
-0.680811
-0.698306
-0.714163
-0.730062
-0.748019
-0.770033
-0.23247
-0.251856
-0.298563
-0.355366
-0.410776
-0.462912
-0.51169
-0.556504
-0.597005
-0.633274
-0.665685
-0.694759
-0.721224
-0.746043
-0.770454
-0.79595
-0.824218
-0.856724
-0.286689
-0.302985
-0.341607
-0.390931
-0.441737
-0.491267
-0.538858
-0.583883
-0.625936
-0.665036
-0.701491
-0.735825
-0.768736
-0.80113
-0.834105
-0.868903
-0.906855
-0.948935
-0.341
-0.354743
-0.387153
-0.430277
-0.47695
-0.52422
-0.571011
-0.61663
-0.660628
-0.702956
-0.743842
-0.783731
-0.823245
-0.863163
-0.904364
-0.947815
-0.994479
-1.04488
-0.394149
-0.405962
-0.433888
-0.472325
-0.515737
-0.561359
-0.607912
-0.654611
-0.700992
-0.746892
-0.792445
-0.837978
-0.88397
-0.931007
-0.979742
-1.03085
-1.08491
-1.14211
-0.444247
-0.454783
-0.479826
-0.51522
-0.55659
-0.601462
-0.648523
-0.696914
-0.746108
-0.795847
-0.846132
-0.897141
-0.949172
-1.0026
-1.05784
-1.11526
-1.17518
-1.23749
-0.488257
-0.498161
-0.521847
-0.555955
-0.596793
-0.642132
-0.690655
-0.741463
-0.793926
-0.847692
-0.902622
-0.958726
-1.01611
-1.07494
-1.13541
-1.19765
-1.26176
-1.32743
-0.518828
-0.52877
-0.552657
-0.587374
-0.629409
-0.676595
-0.727581
-0.781408
-0.837371
-0.895016
-0.954082
-1.01444
-1.07602
-1.13885
-1.20292
-1.26823
-1.33471
-1.40195
-0.531337
-0.541829
-0.56716
-0.604058
-0.64874
-0.698845
-0.752958
-0.810073
-0.86945
-0.930561
-0.993056
-1.0567
-1.12136
-1.18692
-1.25329
-1.32039
-1.38807
-1.45587
-0.528514
-0.539829
-0.567473
-0.607767
-0.656149
-0.70985
-0.767414
-0.827867
-0.890444
-0.954575
-1.01987
-1.08605
-1.15293
-1.22033
-1.28813
-1.35619
-1.42434
-1.49206
-0.513974
-0.526139
-0.55689
-0.60183
-0.654862
-0.712676
-0.773951
-0.837822
-0.903509
-0.970425
-1.03818
-1.10652
-1.17522
-1.2441
-1.313
-1.38178
-1.45026
-1.51795
-0.490608
-0.503139
-0.537905
-0.589008
-0.647484
-0.709623
-0.774659
-0.841875
-0.910447
-0.979809
-1.04964
-1.11971
-1.18982
-1.25976
-1.32939
-1.39851
-1.46697
-1.5342
-0.461003
-0.472418
-0.512566
-0.571971
-0.636658
-0.703272
-0.772185
-0.842799
-0.914231
-0.986005
-1.0579
-1.12972
-1.20126
-1.27235
-1.3428
-1.41246
-1.48119
-1.54846
-0.42759
-0.434747
-0.482271
-0.551861
-0.62259
-0.693328
-0.765828
-0.839285
-0.912817
-0.986211
-1.05942
-1.13232
-1.20473
-1.27647
-1.34736
-1.41721
-1.48579
-1.55234
-0.392065
-0.390901
-0.452634
-0.534567
-0.610128
-0.68513
-0.762328
-0.839733
-0.916296
-0.992077
-1.06719
-1.14157
-1.2151
-1.28763
-1.35905
-1.4292
-1.49787
-1.56449
-0.352156
-0.32552
-0.417378
-0.515077
-0.589902
-0.663411
-0.74046
-0.817992
-0.894966
-0.971583
-1.04786
-1.12358
-1.19852
-1.2725
-1.34533
-1.41675
-1.48632
-1.55278
-0.348079
-0.235963
-0.38197
-0.522008
-0.6172
-0.702893
-0.785817
-0.864545
-0.940258
-1.01449
-1.08786
-1.1605
-1.23239
-1.3035
-1.37373
-1.44285
-1.51051
-1.57584
-0.446552
-0.118045
-0.200018
-0.311574
-0.415029
-0.52558
-0.634016
-0.735343
-0.830796
-0.922062
-1.00992
-1.09479
-1.17699
-1.25683
-1.33449
-1.41004
-1.48325
-1.55284
-0.745873
-0.813643
-0.852536
-0.788566
-0.767202
-0.794134
-0.840679
-0.895324
-0.95581
-1.02076
-1.08858
-1.15804
-1.22833
-1.2989
-1.36939
-1.43959
-1.50939
-1.57939
2.94832
0.751709
-0.0524338
-0.281743
-0.428364
-0.562435
-0.677521
-0.777518
-0.869262
-0.956352
-1.04015
-1.1213
-1.20028
-1.27738
-1.35289
-1.42712
-1.50057
-1.57759
0.284677
0.25279
0.197849
0.1208
0.0184715
-0.108995
-0.260877
-0.436216
-0.633847
-0.85244
-1.09056
-1.34671
-1.61939
-1.90712
-2.20847
-2.52207
-2.84664
-3.18094
-3.52383
-3.87419
-4.23095
-4.59304
-4.95936
-5.32878
-5.7001
-6.07199
-6.44301
-6.81152
-7.17575
-7.5337
-7.88318
-8.22172
-8.54657
-8.8547
-9.14289
-9.40775
-9.64574
-9.85311
-10.0258
-10.1594
-10.2498
-10.2932
-10.2863
-10.2262
-10.1096
-9.93226
-9.69073
-9.38315
-9.00926
-8.56993
-8.06723
-7.50436
-6.88563
-6.21633
-5.50255
-4.75107
-3.96909
-3.16405
-2.34338
-1.5143
-0.683651
0.142262
0.957762
1.75789
2.53842
3.2959
4.02762
4.73155
5.40631
6.05107
6.66551
7.24972
7.80414
8.32946
8.82662
9.29667
9.7408
10.1602
10.5563
10.9302
11.2833
11.6167
11.9317
12.2294
12.5108
12.7769
13.0286
13.2669
13.4925
13.7062
13.9086
14.1005
14.2823
14.4546
14.6178
14.7725
14.9193
15.0583
15.1892
15.3128
15.431
15.5441
15.6512
15.7522
15.8472
15.9366
16.0206
16.0995
16.1737
16.2433
16.3085
16.3697
16.4269
16.4804
16.5305
16.5771
16.6207
16.6612
16.6989
16.7339
16.7663
16.7964
16.8242
16.8499
16.8736
16.8954
16.9155
16.9339
16.9507
16.9662
16.9802
16.993
17.0047
17.0153
17.0248
17.0335
17.0413
17.0483
17.0546
17.0602
17.0652
17.0697
17.0736
17.077
17.08
17.0826
17.0849
17.0868
17.0885
17.0899
17.091
17.0918
17.0925
17.093
17.0933
17.0934
17.0933
17.0931
17.0928
17.0923
17.0917
17.0911
17.0904
17.0897
17.0891
17.0887
17.0886
17.089
17.0901
17.0923
17.096
17.1018
17.1106
17.1236
17.1426
17.1705
17.2123
17.2753
17.3758
17.5224
0.323244
0.27986
0.221984
0.146698
0.046309
-0.0800797
-0.231592
-0.407052
-0.605103
-0.824244
-1.06289
-1.31945
-1.59235
-1.88006
-2.18115
-2.49428
-2.81817
-3.15167
-3.49367
-3.84314
-4.19907
-4.56045
-4.92627
-5.29548
-5.66694
-6.03941
-6.41151
-6.78169
-7.14821
-7.50916
-7.86239
-8.20549
-8.53577
-8.85026
-9.14575
-9.41886
-9.66604
-9.88352
-10.0672
-10.2129
-10.3162
-10.3733
-10.3811
-10.3365
-10.2358
-10.0742
-9.84797
-9.55526
-9.1957
-8.76997
-8.27988
-7.72845
-7.11976
-6.45894
-5.75199
-5.00562
-4.22701
-3.42363
-2.60298
-1.77239
-0.938846
-0.108817
0.711841
1.51798
2.30523
3.06996
3.80932
4.52113
5.20388
5.85665
6.47904
7.07105
7.63307
8.16577
8.67003
9.14691
9.59758
10.0233
10.4253
10.8049
11.1633
11.5019
11.8217
12.124
12.4098
12.68
12.9358
13.1779
13.4071
13.6241
13.8298
14.0246
14.2092
14.3842
14.5501
14.7074
14.8573
14.9999
15.1346
15.2616
15.3817
15.4955
15.6032
15.705
15.801
15.8915
15.9767
16.057
16.1324
16.2033
16.2699
16.3323
16.3908
16.4456
16.4969
16.5448
16.5895
16.6312
16.67
16.706
16.7396
16.7707
16.7995
16.8261
16.8508
16.8735
16.8944
16.9136
16.9313
16.9475
16.9623
16.9758
16.9881
16.9994
17.0096
17.0188
17.0272
17.0348
17.0416
17.0478
17.0533
17.0582
17.0625
17.0664
17.0699
17.0729
17.0755
17.0778
17.0798
17.0815
17.083
17.0842
17.0851
17.0859
17.0865
17.0868
17.087
17.0871
17.087
17.0867
17.0864
17.086
17.0854
17.085
17.0846
17.0843
17.0844
17.0849
17.0862
17.0884
17.0922
17.0981
17.1069
17.12
17.1389
17.1666
17.2075
17.2682
17.3622
17.477
0.244398
0.178346
0.0998265
0.0122376
-0.0952768
-0.226078
-0.379984
-0.556119
-0.753341
-0.970323
-1.20564
-1.45784
-1.72548
-2.00722
-2.30176
-2.60791
-2.92459
-3.25078
-3.58553
-3.92797
-4.27723
-4.63243
-4.9927
-5.35709
-5.72458
-6.09402
-6.46411
-6.83339
-7.2002
-7.56268
-7.91873
-8.26597
-8.60175
-8.92312
-9.22686
-9.50955
-9.76754
-9.99698
-10.1937
-10.3532
-10.4712
-10.5435
-10.5666
-10.5375
-10.4519
-10.3047
-10.0917
-9.81091
-9.46148
-9.04392
-8.55992
-8.01241
-7.4055
-6.74438
-6.0352
-5.28486
-4.50076
-3.69063
-2.86224
-2.02318
-1.18068
-0.341452
0.488484
1.30383
2.10009
2.87355
3.62128
4.34108
5.0314
5.69132
6.32043
6.91878
7.48674
8.02502
8.53452
9.01634
9.47167
9.90176
10.3079
10.6914
11.0536
11.3957
11.7188
12.0243
12.3131
12.5862
12.8445
13.089
13.3204
13.5394
13.7469
13.9435
14.1297
14.3067
14.4749
14.6342
14.7855
14.9294
15.0657
15.1947
15.3173
15.4338
15.5441
15.6484
15.7468
15.8396
15.9271
16.0094
16.0868
16.1596
16.228
16.2921
16.3522
16.4086
16.4613
16.5106
16.5567
16.5996
16.6397
16.6769
16.7116
16.7437
16.7736
16.8012
16.8268
16.8504
16.8721
16.8922
16.9106
16.9276
16.9431
16.9573
16.9703
16.9822
16.993
17.0028
17.0118
17.0199
17.0272
17.0338
17.0398
17.0451
17.0499
17.0542
17.058
17.0614
17.0644
17.0671
17.0694
17.0715
17.0732
17.0747
17.076
17.0771
17.0779
17.0785
17.079
17.0793
17.0794
17.0794
17.0793
17.0791
17.0788
17.0785
17.0782
17.0782
17.0783
17.0789
17.0802
17.0825
17.0862
17.0918
17.1003
17.1128
17.1308
17.1567
17.1943
17.2483
17.3271
17.406
0.0408889
-0.0331203
-0.119955
-0.213361
-0.323784
-0.455593
-0.608834
-0.782703
-0.976167
-1.18804
-1.41708
-1.66203
-1.92164
-2.19478
-2.48036
-2.77741
-3.08503
-3.40242
-3.72881
-4.0635
-4.40577
-4.75493
-5.11024
-5.47089
-5.83596
-6.2044
-6.57502
-6.94643
-7.31704
-7.68499
-8.0482
-8.40427
-8.75051
-9.08391
-9.40116
-9.69865
-9.97257
-10.2188
-10.4331
-10.6106
-10.7465
-10.8365
-10.8767
-10.8635
-10.7925
-10.658
-10.4551
-10.1814
-9.83569
-9.41851
-8.93148
-8.37762
-7.76128
-7.08798
-6.36429
-5.59759
-4.79584
-3.96729
-3.12021
-2.26266
-1.40226
-0.546014
0.299807
1.12974
1.93921
2.7245
3.4827
4.21171
4.91006
5.57695
6.21209
6.81566
7.38816
7.93036
8.4433
8.92816
9.38624
9.8188
10.2272
10.6128
10.977
11.3209
11.6457
11.9527
12.243
12.5173
12.7768
13.0225
13.2551
13.4752
13.6846
13.8835
14.0718
14.2507
14.4205
14.5815
14.7345
14.8797
15.0174
15.148
15.2721
15.3898
15.5014
15.607
15.7067
15.8007
15.8894
15.9729
16.0514
16.1253
16.1948
16.26
16.3211
16.3784
16.4321
16.4823
16.5293
16.5731
16.6139
16.652
16.6874
16.7203
16.7509
16.7792
16.8054
16.8297
16.8521
16.8727
16.8917
16.9092
16.9253
16.94
16.9535
16.9659
16.9772
16.9874
16.9968
17.0053
17.0131
17.0201
17.0264
17.0321
17.0373
17.0419
17.0461
17.0498
17.0531
17.0561
17.0587
17.061
17.0631
17.0649
17.0664
17.0677
17.0688
17.0697
17.0703
17.0709
17.0712
17.0714
17.0715
17.0714
17.0713
17.0712
17.0711
17.0711
17.0713
17.0719
17.0731
17.0752
17.0786
17.0838
17.0916
17.1029
17.1192
17.1423
17.1749
17.2197
17.2806
17.3292
-0.252226
-0.327252
-0.41664
-0.512727
-0.624
-0.755256
-0.906658
-1.07737
-1.26636
-1.47253
-1.69477
-1.93199
-2.18316
-2.44733
-2.72367
-3.01142
-3.30991
-3.61852
-3.9367
-4.26392
-4.59966
-4.94339
-5.29451
-5.65233
-6.01607
-6.38475
-6.75729
-7.13234
-7.50836
-7.88352
-8.2557
-8.62248
-8.9811
-9.32846
-9.6611
-9.97525
-10.2669
-10.5316
-10.7648
-10.9615
-11.1164
-11.2248
-11.2822
-11.2849
-11.2281
-11.1052
-10.9106
-10.641
-10.2953
-9.87359
-9.37765
-8.81066
-8.17731
-7.48366
-6.73689
-5.94512
-5.11704
-4.26166
-3.38794
-2.50458
-1.61971
-0.740725
0.125836
0.97436
1.8002
2.5997
3.37007
4.10935
4.81626
5.49016
6.131
6.73919
7.31541
7.86057
8.37581
8.86254
9.32217
9.75597
10.1653
10.5517
10.9166
11.2611
11.5863
11.8937
12.1846
12.4595
12.7198
12.9671
13.2017
13.4238
13.6346
13.8347
14.0245
14.2047
14.3758
14.5382
14.6923
14.8387
14.9776
15.1093
15.2344
15.353
15.4654
15.5718
15.6723
15.7672
15.8567
15.9411
16.0205
16.0952
16.1655
16.2315
16.2935
16.3516
16.406
16.457
16.5047
16.5492
16.5907
16.6294
16.6655
16.6991
16.7302
16.7591
16.7859
16.8107
16.8337
16.8549
16.8744
16.8924
16.9089
16.9241
16.938
16.9508
16.9625
16.9732
16.9829
16.9918
16.9999
17.0072
17.0139
17.0199
17.0254
17.0303
17.0348
17.0388
17.0424
17.0456
17.0485
17.051
17.0533
17.0553
17.0571
17.0586
17.0599
17.0609
17.0618
17.0625
17.0631
17.0634
17.0636
17.0638
17.0638
17.0637
17.0637
17.0637
17.0639
17.0644
17.0655
17.0672
17.0701
17.0746
17.0813
17.091
17.1049
17.1243
17.1506
17.1851
17.2281
17.2522
-0.603129
-0.674712
-0.762734
-0.858714
-0.968484
-1.09693
-1.2444
-1.41012
-1.5931
-1.79232
-2.0068
-2.23561
-2.4779
-2.73292
-3.00005
-3.27871
-3.56845
-3.86883
-4.1795
-4.5001
-4.83028
-5.16964
-5.51774
-5.87402
-6.23778
-6.6082
-6.98423
-7.3646
-7.74781
-8.13204
-8.51517
-8.89475
-9.26796
-9.6316
-9.98207
-10.3154
-10.6274
-10.9134
-11.1684
-11.3871
-11.5637
-11.693
-11.7701
-11.7909
-11.7498
-11.6398
-11.4539
-11.1882
-10.8411
-10.4125
-9.90416
-9.31955
-8.66381
-7.94366
-7.16713
-6.34324
-5.48169
-4.59243
-3.68537
-2.76998
-1.85501
-0.948304
-0.0566866
0.814065
1.65926
2.47531
3.25965
4.01057
4.72698
5.40849
6.05531
6.6682
7.24809
7.79594
8.31307
8.80117
9.26186
9.69629
10.1058
10.4924
10.8577
11.2024
11.5278
11.8362
12.1288
12.4055
12.6675
12.9159
13.1515
13.3749
13.5868
13.788
13.9789
14.1602
14.3324
14.4959
14.6511
14.7986
14.9385
15.0713
15.1973
15.3168
15.43
15.5372
15.6385
15.7342
15.8246
15.9097
15.99
16.0656
16.1366
16.2035
16.2662
16.3251
16.3803
16.432
16.4804
16.5256
16.5678
16.6072
16.6439
16.6781
16.7099
16.7394
16.7667
16.7921
16.8156
16.8373
16.8573
16.8758
16.8928
16.9085
16.9229
16.9361
16.9482
16.9592
16.9694
16.9786
16.9871
16.9948
17.0017
17.0081
17.0139
17.0191
17.0238
17.0281
17.032
17.0354
17.0385
17.0413
17.0438
17.0461
17.048
17.0497
17.0512
17.0525
17.0535
17.0544
17.0551
17.0556
17.0559
17.0562
17.0563
17.0563
17.0562
17.0562
17.0564
17.0567
17.0574
17.0588
17.061
17.0645
17.0698
17.0775
17.0885
17.1035
17.1231
17.1469
17.1735
17.1778
-0.978959
-1.04361
-1.12675
-1.21995
-1.32628
-1.45027
-1.59241
-1.75202
-1.92818
-2.11997
-2.3265
-2.54699
-2.78074
-3.02718
-3.28583
-3.5563
-3.83829
-4.13155
-4.43588
-4.75107
-5.07694
-5.41321
-5.75958
-6.11561
-6.48073
-6.8542
-7.23507
-7.62215
-8.01398
-8.40879
-8.80448
-9.19858
-9.58822
-9.97014
-10.3406
-10.6956
-11.0305
-11.3404
-11.6202
-11.864
-12.0656
-12.2191
-12.3191
-12.3607
-12.3383
-12.2435
-12.0683
-11.8076
-11.4591
-11.0227
-10.5
-9.89474
-9.21264
-8.46124
-7.6496
-6.7879
-5.88705
-4.95821
-4.01238
-3.05997
-2.11047
-1.1722
-0.252268
0.643404
1.51008
2.3443
3.14381
3.90724
4.63374
5.32309
5.97589
6.5934
7.17679
7.72701
8.24552
8.73463
9.19627
9.6313
10.0412
10.4287
10.7956
11.1422
11.4695
11.7793
12.0728
12.3505
12.6136
12.8631
13.0997
13.3242
13.5372
13.7395
13.9315
14.1139
14.2872
14.4518
14.6082
14.7566
14.8976
15.0314
15.1584
15.2788
15.393
15.501
15.6032
15.6998
15.791
15.8771
15.9582
16.0347
16.1066
16.1742
16.2378
16.2975
16.3535
16.4059
16.4551
16.501
16.544
16.5841
16.6215
16.6563
16.6888
16.7189
16.7469
16.7729
16.797
16.8192
16.8398
16.8588
16.8764
16.8925
16.9074
16.9211
16.9336
16.9451
16.9557
16.9653
16.9742
16.9823
16.9896
16.9963
17.0024
17.008
17.013
17.0176
17.0217
17.0255
17.0288
17.0319
17.0346
17.0371
17.0392
17.0411
17.0428
17.0442
17.0455
17.0465
17.0473
17.048
17.0484
17.0487
17.0489
17.0489
17.0489
17.0488
17.0488
17.0489
17.0492
17.05
17.0514
17.0538
17.0575
17.0629
17.0706
17.0809
17.0936
17.1072
17.119
17.1075
-1.34732
-1.40302
-1.47888
-1.5673
-1.66898
-1.78763
-1.92381
-2.07692
-2.24612
-2.43057
-2.62952
-2.84228
-3.06828
-3.30708
-3.55834
-3.82182
-4.09734
-4.3848
-4.68415
-4.99531
-5.31821
-5.65274
-5.9987
-6.35579
-6.72354
-7.10133
-7.4883
-7.88337
-8.28515
-8.69193
-9.10164
-9.51184
-9.91967
-10.3218
-10.7144
-11.0933
-11.4537
-11.7906
-12.0982
-12.3704
-12.6005
-12.7818
-12.9083
-12.9744
-12.9739
-12.8975
-12.7357
-12.482
-12.1334
-11.6893
-11.1513
-10.5233
-9.81193
-9.02554
-8.1745
-7.27039
-6.32553
-5.3525
-4.36362
-3.37043
-2.38321
-1.41076
-0.460395
0.461788
1.35099
2.2039
3.01879
3.79479
4.53118
5.22792
5.88617
6.50804
7.09491
7.64752
8.16777
8.65911
9.12339
9.56092
9.97325
10.3626
10.7306
11.0783
11.4068
11.7178
12.0122
12.291
12.5553
12.8059
13.0437
13.2694
13.4836
13.6871
13.8804
14.064
14.2385
14.4043
14.5619
14.7115
14.8536
14.9885
15.1166
15.238
15.3531
15.4622
15.5654
15.6629
15.7551
15.8421
15.9242
16.0015
16.0744
16.1429
16.2074
16.268
16.3248
16.3781
16.4281
16.4748
16.5186
16.5594
16.5976
16.6332
16.6663
16.6972
16.7258
16.7525
16.7772
16.8001
16.8213
16.8409
16.859
16.8757
16.8911
16.9053
16.9184
16.9304
16.9414
16.9515
16.9608
16.9693
16.9771
16.9842
16.9907
16.9966
17.002
17.0069
17.0114
17.0154
17.0191
17.0224
17.0254
17.0281
17.0305
17.0327
17.0346
17.0362
17.0376
17.0388
17.0398
17.0405
17.0411
17.0415
17.0417
17.0418
17.0417
17.0415
17.0413
17.0411
17.041
17.0411
17.0416
17.0427
17.0446
17.0476
17.0518
17.0573
17.0632
17.0672
17.0662
17.042
-1.67996
-1.72599
-1.79327
-1.8756
-1.97198
-2.08506
-2.21527
-2.36206
-2.52471
-2.70244
-2.8946
-3.1006
-3.31997
-3.55239
-3.7976
-4.05549
-4.326
-4.60913
-4.90494
-5.21349
-5.53482
-5.86893
-6.21577
-6.57512
-6.94666
-7.32988
-7.72404
-8.12815
-8.54094
-8.96076
-9.38564
-9.81318
-10.2405
-10.6643
-11.0808
-11.4855
-11.8736
-12.2397
-12.5779
-12.8816
-13.1435
-13.3562
-13.5128
-13.607
-13.6319
-13.5775
-13.4324
-13.1884
-12.8417
-12.391
-11.8377
-11.1863
-10.4437
-9.61979
-8.72629
-7.77644
-6.78417
-5.76373
-4.72901
-3.69284
-2.66646
-1.65897
-0.677809
0.270733
1.18175
2.05228
2.88165
3.66966
4.41543
5.11925
5.78349
6.41126
7.00347
7.56065
8.08503
8.57932
9.04534
9.4845
9.8985
10.2893
10.6584
11.0072
11.3371
11.6493
11.9449
12.2251
12.4907
12.7427
12.9819
13.209
13.4246
13.6295
13.8243
14.0093
14.1852
14.3524
14.5112
14.6622
14.8056
14.9417
15.071
15.1936
15.3098
15.42
15.5243
15.6229
15.7161
15.8042
15.8873
15.9657
16.0395
16.1091
16.1745
16.236
16.2938
16.3481
16.3989
16.4465
16.4911
16.5328
16.5718
16.6082
16.6421
16.6737
16.7032
16.7305
16.7559
16.7795
16.8014
16.8216
16.8404
16.8577
16.8737
16.8885
16.9021
16.9147
16.9263
16.9369
16.9467
16.9557
16.9639
16.9715
16.9784
16.9848
16.9906
16.9959
17.0007
17.0051
17.0092
17.0128
17.0161
17.0191
17.0218
17.0242
17.0263
17.0282
17.0298
17.0312
17.0323
17.0333
17.034
17.0344
17.0347
17.0348
17.0346
17.0343
17.0339
17.0333
17.0327
17.0322
17.0317
17.0314
17.0315
17.0319
17.0326
17.0332
17.0326
17.028
17.0158
16.9813
-1.9541
-1.99073
-2.049
-2.12453
-2.21542
-2.32314
-2.44783
-2.58896
-2.74586
-2.91784
-3.10432
-3.30478
-3.51886
-3.7463
-3.98695
-4.24075
-4.50775
-4.78804
-5.08176
-5.38908
-5.71016
-6.04509
-6.39392
-6.75658
-7.13285
-7.52234
-7.92444
-8.33828
-8.76269
-9.19617
-9.6368
-10.0823
-10.5298
-10.976
-11.4172
-11.8488
-12.2658
-12.6628
-13.0333
-13.3706
-13.6669
-13.914
-14.104
-14.2296
-14.283
-14.2538
-14.1289
-13.898
-13.5558
-13.1005
-12.5332
-11.8584
-11.0842
-10.2215
-9.28391
-8.28665
-7.24539
-6.17637
-5.09536
-4.01674
-2.95255
-1.9117
-0.901372
0.0718097
1.00291
1.88994
2.73419
3.53546
4.29225
5.00548
5.67744
6.31059
6.90652
7.46697
7.9942
8.49062
8.95828
9.39899
9.81456
10.2068
10.5773
10.9276
11.2589
11.5727
11.8699
12.1516
12.4189
12.6725
12.9134
13.1421
13.3595
13.5661
13.7625
13.9491
14.1266
14.2954
14.4557
14.6082
14.753
14.8906
15.0212
15.1451
15.2627
15.3741
15.4796
15.5794
15.6739
15.7631
15.8474
15.9269
16.0019
16.0725
16.139
16.2016
16.2604
16.3156
16.3674
16.416
16.4616
16.5042
16.544
16.5813
16.6161
16.6485
16.6787
16.7069
16.7331
16.7574
16.78
16.8009
16.8204
16.8384
16.855
16.8705
16.8847
16.8979
16.91
16.9212
16.9316
16.9411
16.9499
16.958
16.9654
16.9722
16.9785
16.9842
16.9895
16.9944
16.9988
17.0028
17.0065
17.0098
17.0128
17.0156
17.018
17.0201
17.022
17.0236
17.0249
17.026
17.0269
17.0275
17.0278
17.0279
17.0277
17.0273
17.0266
17.0257
17.0246
17.0232
17.0217
17.0201
17.0182
17.016
17.0133
17.0092
17.0025
16.9902
16.9684
16.9255
-2.15333
-2.18106
-2.23058
-2.2991
-2.38466
-2.48754
-2.60746
-2.74386
-2.89607
-3.06348
-3.24555
-3.44186
-3.65208
-3.87603
-4.11361
-4.36483
-4.62979
-4.90864
-5.20162
-5.50899
-5.83098
-6.16779
-6.51955
-6.8863
-7.26794
-7.66419
-8.07457
-8.49833
-8.93442
-9.38146
-9.83765
-10.3008
-10.7681
-11.2365
-11.7019
-12.1602
-12.6061
-13.0339
-13.4373
-13.8089
-14.1406
-14.4236
-14.649
-14.8084
-14.893
-14.8919
-14.7902
-14.5756
-14.2409
-13.7835
-13.2039
-12.507
-11.7017
-10.8007
-9.8199
-8.77653
-7.68793
-6.57255
-5.4483
-4.33091
-3.23272
-2.16105
-1.12239
-0.124466
0.827892
1.73307
2.59138
3.40289
4.16795
4.888
5.56529
6.20224
6.80107
7.364
7.89341
8.39168
8.86096
9.30326
9.72045
10.1143
10.4865
10.8385
11.1716
11.4872
11.7863
12.07
12.3392
12.5949
12.8377
13.0684
13.2878
13.4963
13.6946
13.8832
14.0625
14.233
14.3952
14.5493
14.6958
14.8349
14.9671
15.0926
15.2116
15.3244
15.4313
15.5325
15.6282
15.7188
15.8043
15.8851
15.9613
16.0332
16.1008
16.1645
16.2245
16.2808
16.3337
16.3833
16.4299
16.4735
16.5143
16.5525
16.5882
16.6215
16.6526
16.6816
16.7086
16.7337
16.7571
16.7788
16.799
16.8177
16.8351
16.8512
16.8661
16.8799
16.8927
16.9045
16.9155
16.9256
16.9349
16.9436
16.9515
16.9589
16.9657
16.9719
16.9777
16.983
16.9878
16.9923
16.9964
17.0001
17.0035
17.0066
17.0093
17.0118
17.014
17.0158
17.0174
17.0187
17.0197
17.0205
17.0209
17.021
17.0208
17.0202
17.0193
17.0181
17.0164
17.0144
17.0118
17.0088
17.005
17.0003
16.9941
16.9857
16.9733
16.9541
16.9242
16.8744
-2.2674
-2.28721
-2.3287
-2.39029
-2.47074
-2.56934
-2.68531
-2.81795
-2.96659
-3.13065
-3.30965
-3.50319
-3.71102
-3.93297
-4.169
-4.41915
-4.68356
-4.96243
-5.25605
-5.5647
-5.88869
-6.22829
-6.5837
-6.95506
-7.34236
-7.74544
-8.16392
-8.59718
-9.04432
-9.50405
-9.97472
-10.4542
-10.94
-11.4288
-11.917
-12.4002
-12.8732
-13.3303
-13.765
-14.1696
-14.5356
-14.8538
-15.1146
-15.3085
-15.4253
-15.4531
-15.3758
-15.1788
-14.8529
-14.3948
-13.8051
-13.0887
-12.2557
-11.3208
-10.3023
-9.21985
-8.0911
-6.93447
-5.77018
-4.61533
-3.48296
-2.38221
-1.32019
-0.302959
0.665585
1.58388
2.45202
3.27072
4.04127
4.76562
5.4462
6.0856
6.68636
7.25101
7.78204
8.28186
8.75271
9.19665
9.6156
10.0113
10.3855
10.7395
11.0748
11.3926
11.694
11.98
12.2515
12.5095
12.7547
12.9877
13.2093
13.4201
13.6206
13.8113
13.9927
14.1653
14.3294
14.4855
14.6338
14.7748
14.9087
15.0358
15.1565
15.2709
15.3793
15.4821
15.5793
15.6713
15.7583
15.8404
15.918
15.9911
16.0601
16.1251
16.1862
16.2437
16.2978
16.3485
16.3962
16.4409
16.4827
16.5219
16.5586
16.5929
16.6249
16.6548
16.6827
16.7087
16.7329
16.7554
16.7764
16.7959
16.814
16.8308
16.8464
16.8609
16.8744
16.8868
16.8984
16.9091
16.9191
16.9283
16.9368
16.9448
16.9521
16.9588
16.9651
16.9709
16.9763
16.9812
16.9858
16.9899
16.9937
16.9972
17.0003
17.0032
17.0057
17.0078
17.0097
17.0113
17.0125
17.0134
17.0139
17.0141
17.0139
17.0132
17.0121
17.0105
17.0084
17.0056
17.002
16.9976
16.9919
16.9848
16.9755
16.9629
16.9453
16.9201
16.8832
16.8276
-2.29207
-2.30556
-2.34025
-2.39544
-2.47117
-2.56604
-2.67882
-2.80858
-2.95463
-3.11641
-3.29346
-3.48542
-3.69209
-3.91332
-4.14909
-4.39947
-4.66461
-4.94475
-5.24015
-5.55114
-5.87804
-6.22117
-6.5808
-6.95712
-7.35021
-7.75998
-8.18615
-8.6282
-9.0853
-9.55629
-10.0396
-10.5333
-11.0347
-11.5409
-12.0482
-12.5522
-13.0478
-13.5292
-13.9899
-14.4222
-14.8175
-15.1664
-15.459
-15.6847
-15.8319
-15.8867
-15.833
-15.6556
-15.3443
-14.8932
-14.3015
-13.574
-12.7212
-11.7587
-10.7068
-9.58747
-8.42228
-7.23127
-6.03453
-4.84978
-3.691
-2.56845
-1.48951
-0.459372
0.518995
1.44455
2.31769
3.13969
3.91245
4.63835
5.32005
5.96033
6.56193
7.12752
7.65967
8.16081
8.63318
9.07888
9.49979
9.89767
10.2741
10.6306
10.9684
11.2888
11.5928
11.8815
12.1558
12.4164
12.6643
12.8999
13.1242
13.3375
13.5404
13.7336
13.9173
14.0922
14.2585
14.4167
14.5671
14.7101
14.846
14.975
15.0974
15.2136
15.3238
15.4282
15.5271
15.6207
15.7093
15.7929
15.872
15.9466
16.0169
16.0832
16.1457
16.2045
16.2598
16.3118
16.3606
16.4065
16.4495
16.4897
16.5275
16.5628
16.5958
16.6266
16.6555
16.6823
16.7074
16.7308
16.7526
16.7729
16.7918
16.8094
16.8258
16.841
16.8551
16.8683
16.8805
16.8919
16.9025
16.9123
16.9214
16.9299
16.9378
16.9451
16.952
16.9583
16.9642
16.9696
16.9746
16.9792
16.9835
16.9874
16.9909
16.9942
16.997
16.9995
17.0017
17.0036
17.005
17.0061
17.0068
17.0071
17.0069
17.0062
17.0049
17.003
17.0003
16.9968
16.9923
16.9865
16.9792
16.9697
16.9574
16.941
16.9189
16.8883
16.8455
16.7849
-2.22942
-2.23802
-2.26724
-2.31674
-2.38801
-2.47947
-2.58949
-2.71694
-2.86108
-3.02132
-3.19725
-3.38855
-3.595
-3.8165
-4.05301
-4.30462
-4.57146
-4.85376
-5.15181
-5.46592
-5.79643
-6.14367
-6.50794
-6.88946
-7.28836
-7.70462
-8.13803
-8.58814
-9.05422
-9.53518
-10.0296
-10.5354
-11.0503
-11.5712
-12.0945
-12.6159
-13.1303
-13.632
-14.1143
-14.5697
-14.9896
-15.3648
-15.6852
-15.9396
-16.1146
-16.1941
-16.1617
-16.0031
-15.7072
-15.2649
-14.674
-13.9388
-13.0701
-12.0852
-11.0056
-9.85589
-8.66038
-7.44213
-6.22211
-5.01813
-3.84418
-2.71053
-1.62426
-0.589778
0.390705
1.31678
2.18933
3.01011
3.78143
4.50597
5.18658
5.82614
6.42746
6.99327
7.52611
8.02839
8.50231
8.94991
9.37303
9.77337
10.1525
10.5118
10.8525
11.1759
11.483
11.7748
12.0521
12.3158
12.5666
12.8053
13.0323
13.2485
13.4542
13.65
13.8364
14.0138
14.1825
14.3431
14.4958
14.641
14.779
14.9101
15.0346
15.1528
15.2648
15.3711
15.4718
15.5671
15.6574
15.7427
15.8234
15.8995
15.9714
16.0392
16.1031
16.1633
16.22
16.2733
16.3234
16.3705
16.4146
16.4561
16.4949
16.5313
16.5654
16.5973
16.6271
16.6549
16.681
16.7053
16.7279
16.7491
16.7688
16.7872
16.8043
16.8203
16.8352
16.849
16.8619
16.874
16.8852
16.8957
16.9054
16.9145
16.923
16.9309
16.9383
16.9451
16.9515
16.9575
16.963
16.9681
16.9728
16.9772
16.9812
16.9848
16.9881
16.9909
16.9935
16.9956
16.9974
16.9987
16.9996
17
16.9998
16.9991
16.9977
16.9955
16.9924
16.9882
16.9828
16.9758
16.9667
16.9551
16.94
16.9202
16.894
16.8587
16.8109
16.746
-2.08748
-2.09216
-2.11695
-2.16145
-2.22833
-2.31633
-2.42366
-2.54907
-2.69174
-2.85109
-3.02668
-3.2182
-3.42546
-3.6483
-3.88669
-4.14065
-4.4103
-4.69583
-4.99748
-5.31553
-5.6503
-6.00213
-6.3713
-6.75808
-7.16264
-7.58501
-8.02504
-8.48239
-8.95641
-9.44611
-9.95012
-10.4666
-10.9932
-11.5268
-12.0641
-12.6005
-13.1311
-13.6502
-14.1509
-14.6257
-15.0661
-15.4628
-15.8059
-16.0841
-16.2822
-16.3807
-16.3635
-16.2171
-15.9287
-15.4888
-14.8941
-14.149
-13.2654
-12.2619
-11.1623
-9.99288
-8.78001
-7.54821
-6.31899
-5.10998
-3.93475
-2.80295
-1.7209
-0.692231
0.28162
1.20084
2.06678
2.88153
3.64766
4.36797
5.04535
5.68269
6.28275
6.84815
7.38138
7.88471
8.36026
8.80996
9.23557
9.63872
10.0209
10.3834
10.7274
11.0542
11.3648
11.66
11.9407
12.2078
12.4619
12.7038
12.9341
13.1534
13.3621
13.5608
13.7501
13.9302
14.1016
14.2648
14.42
14.5676
14.708
14.8413
14.968
15.0883
15.2025
15.3108
15.4134
15.5107
15.6028
15.6899
15.7723
15.8501
15.9237
15.9931
16.0586
16.1203
16.1784
16.2331
16.2846
16.3329
16.3784
16.4211
16.4611
16.4987
16.5339
16.5668
16.5977
16.6266
16.6536
16.6788
16.7024
16.7245
16.745
16.7643
16.7822
16.7989
16.8146
16.8292
16.8428
16.8556
16.8675
16.8786
16.889
16.8987
16.9077
16.9162
16.9241
16.9316
16.9385
16.945
16.951
16.9566
16.9618
16.9666
16.9711
16.9751
16.9788
16.9821
16.985
16.9875
16.9895
16.9911
16.9922
16.9927
16.9927
16.9919
16.9904
16.988
16.9845
16.9798
16.9735
16.9653
16.9547
16.9411
16.9235
16.9006
16.8707
16.8313
16.7793
16.7106
-1.88009
-1.8814
-1.90234
-1.94218
-2.00437
-2.08836
-2.19257
-2.31578
-2.45713
-2.61602
-2.79198
-2.98465
-3.19376
-3.41913
-3.66061
-3.91818
-4.19185
-4.48174
-4.788
-5.11086
-5.45059
-5.80748
-6.18181
-6.57385
-6.98379
-7.41171
-7.85756
-8.32104
-8.80162
-9.29841
-9.81014
-10.335
-10.8708
-11.4145
-11.9625
-12.5105
-13.0535
-13.5855
-14.0997
-14.5885
-15.0431
-15.4546
-15.8131
-16.1069
-16.3184
-16.4256
-16.4131
-16.269
-15.9797
-15.5352
-14.9323
-14.176
-13.2797
-12.2641
-11.1548
-9.97939
-8.76528
-7.53729
-6.31651
-5.11973
-3.95942
-2.84418
-1.7793
-0.767494
0.19048
1.0953
1.94862
2.75266
3.51004
4.22349
4.89579
5.52964
6.12763
6.6922
7.22563
7.73004
8.20738
8.65945
9.08788
9.49418
9.87974
10.2458
10.5936
10.9242
11.2385
11.5375
11.8219
12.0927
12.3505
12.5959
12.8297
13.0523
13.2643
13.4662
13.6585
13.8416
14.0159
14.1819
14.3398
14.49
14.6329
14.7688
14.8978
15.0205
15.1369
15.2473
15.3521
15.4514
15.5455
15.6345
15.7188
15.7985
15.8738
15.9449
16.0121
16.0754
16.1351
16.1913
16.2442
16.294
16.3409
16.3849
16.4262
16.465
16.5013
16.5354
16.5674
16.5974
16.6254
16.6516
16.6762
16.6992
16.7207
16.7407
16.7595
16.7771
16.7935
16.8089
16.8232
16.8367
16.8493
16.8611
16.8721
16.8824
16.8921
16.9012
16.9097
16.9177
16.9252
16.9322
16.9387
16.9448
16.9505
16.9558
16.9607
16.9652
16.9693
16.973
16.9762
16.9791
16.9815
16.9833
16.9847
16.9854
16.9855
16.9847
16.9832
16.9805
16.9767
16.9714
16.9644
16.9551
16.9432
16.9277
16.9079
16.8823
16.8492
16.8062
16.7505
16.6784
-1.62626
-1.62378
-1.6397
-1.67342
-1.72894
-1.80686
-1.90628
-2.02621
-2.1658
-2.32436
-2.50128
-2.69604