/*--------------------------------*- C++ -*----------------------------------*\
| =========                 |                                                 |
| \\      /  F ield         | OpenFOAM: The Open Source CFD Toolbox           |
|  \\    /   O peration     | Version:  2.2.x                                 |
|   \\  /    A nd           | Web:      www.OpenFOAM.org                      |
|    \\/     M anipulation  |                                                 |
\*---------------------------------------------------------------------------*/
FoamFile
{
    version     2.0;
    format      ascii;
    class       surfaceScalarField;
    location    "100";
    object      phi;
}
// * * * * * * * * * * * * * * * * * * * * * * * * * * * * * * * * * * * * * //

dimensions      [0 3 -1 0 0 0 0];

internalField   nonuniform List<scalar> 
24170
(
3.08802e-06
4.58744e-08
3.01377e-06
7.42525e-08
2.95117e-06
6.25974e-08
2.88827e-06
6.28936e-08
2.82792e-06
6.03508e-08
2.77152e-06
5.64071e-08
2.71906e-06
5.24539e-08
2.67026e-06
4.88048e-08
2.62476e-06
4.54948e-08
2.58224e-06
4.25256e-08
2.54234e-06
3.98942e-08
2.50474e-06
3.75986e-08
2.46909e-06
3.56481e-08
2.43501e-06
3.40817e-08
2.40199e-06
3.30172e-08
2.36907e-06
3.29212e-08
2.33318e-06
3.58874e-08
4.45785e-08
2.2886e-06
3.46843e-06
3.38881e-08
3.45745e-06
8.5236e-08
3.44243e-06
7.76168e-08
3.42693e-06
7.83877e-08
3.40987e-06
7.7412e-08
3.39164e-06
7.46368e-08
3.37254e-06
7.15561e-08
3.35277e-06
6.85725e-08
3.33252e-06
6.57471e-08
3.31192e-06
6.31211e-08
3.29107e-06
6.07448e-08
3.26999e-06
5.86729e-08
3.24866e-06
5.69801e-08
3.22695e-06
5.57903e-08
3.20461e-06
5.5352e-08
3.1813e-06
5.62333e-08
3.15768e-06
5.95092e-08
6.51305e-08
3.13712e-06
3.80906e-06
3.70221e-08
3.81735e-06
7.69452e-08
3.81907e-06
7.58971e-08
3.82045e-06
7.70091e-08
3.82036e-06
7.74996e-08
3.81874e-06
7.62598e-08
3.81589e-06
7.44075e-08
3.81201e-06
7.24446e-08
3.80726e-06
7.05059e-08
3.8017e-06
6.86786e-08
3.79539e-06
6.70552e-08
3.78833e-06
6.57314e-08
3.78048e-06
6.48259e-08
3.77176e-06
6.45121e-08
3.76203e-06
6.50774e-08
3.75126e-06
6.70085e-08
3.73983e-06
7.09349e-08
7.64267e-08
3.72853e-06
4.20583e-06
3.57501e-08
4.21468e-06
6.81004e-08
4.21846e-06
7.21109e-08
4.22136e-06
7.41092e-08
4.22341e-06
7.54474e-08
4.22454e-06
7.51376e-08
4.22493e-06
7.40154e-08
4.22471e-06
7.26604e-08
4.22394e-06
7.12833e-08
4.22261e-06
7.00069e-08
4.22072e-06
6.89454e-08
4.21823e-06
6.82163e-08
4.21511e-06
6.79559e-08
4.21127e-06
6.83498e-08
4.20668e-06
6.9666e-08
4.20142e-06
7.22689e-08
4.19585e-06
7.65107e-08
8.19974e-08
4.19028e-06
4.64051e-06
3.25488e-08
4.64804e-06
6.05675e-08
4.65239e-06
6.77576e-08
4.65577e-06
7.07377e-08
4.65858e-06
7.26342e-08
4.66072e-06
7.29995e-08
4.66225e-06
7.2482e-08
4.66325e-06
7.16604e-08
4.66375e-06
7.07904e-08
4.66373e-06
7.00194e-08
4.66321e-06
6.94755e-08
4.66214e-06
6.92869e-08
4.6605e-06
6.95966e-08
4.65827e-06
7.05833e-08
4.65546e-06
7.2475e-08
4.6522e-06
7.55329e-08
4.64874e-06
7.9966e-08
8.55406e-08
4.6452e-06
5.11811e-06
2.90333e-08
5.12487e-06
5.38129e-08
5.12973e-06
6.2897e-08
5.13358e-06
6.68782e-08
5.13689e-06
6.93343e-08
5.13955e-06
7.03372e-08
5.14161e-06
7.0424e-08
5.14313e-06
7.01404e-08
5.14414e-06
6.97755e-08
5.14466e-06
6.9499e-08
5.14469e-06
6.94522e-08
5.14421e-06
6.97678e-08
5.14322e-06
7.05884e-08
5.14173e-06
7.20736e-08
5.1398e-06
7.44065e-08
5.13757e-06
7.77639e-08
5.13528e-06
8.22574e-08
8.76853e-08
5.13313e-06
5.64429e-06
2.57536e-08
5.65049e-06
4.76152e-08
5.65564e-06
5.77403e-08
5.65987e-06
6.26476e-08
5.66353e-06
6.56791e-08
5.66657e-06
6.72948e-08
5.66902e-06
6.7979e-08
5.67092e-06
6.82376e-08
5.67232e-06
6.83801e-08
5.67322e-06
6.85944e-08
5.67364e-06
6.90294e-08
5.67359e-06
6.98186e-08
5.67309e-06
7.10958e-08
5.67216e-06
7.29979e-08
5.67091e-06
7.56595e-08
5.66948e-06
7.91919e-08
5.6681e-06
8.36386e-08
8.88012e-08
5.66698e-06
4.40833e-06
2.35358e-08
4.41238e-06
4.35641e-08
4.41615e-06
5.39671e-08
4.41936e-06
5.94408e-08
4.42216e-06
6.28812e-08
4.42455e-06
6.49049e-08
4.42653e-06
6.60006e-08
4.42812e-06
6.66469e-08
4.42934e-06
6.71535e-08
4.43022e-06
6.77171e-08
4.43076e-06
6.84864e-08
4.43099e-06
6.95958e-08
4.43091e-06
7.11677e-08
4.43059e-06
7.33204e-08
4.43009e-06
7.61558e-08
4.42954e-06
7.97452e-08
4.42908e-06
8.40954e-08
8.89957e-08
4.42889e-06
5.1421e-06
2.12937e-08
5.14618e-06
3.94799e-08
5.15021e-06
4.9942e-08
5.15377e-06
5.58761e-08
5.15695e-06
5.97028e-08
5.15972e-06
6.21341e-08
5.16207e-06
6.36529e-08
5.16401e-06
6.47067e-08
5.16556e-06
6.55991e-08
5.16675e-06
6.65292e-08
5.16759e-06
6.76458e-08
5.16811e-06
6.90757e-08
5.16835e-06
7.093e-08
5.16836e-06
7.33034e-08
5.16825e-06
7.62664e-08
5.16814e-06
7.98549e-08
5.16819e-06
8.40438e-08
8.86189e-08
5.16857e-06
5.99803e-06
1.90578e-08
6.00208e-06
3.54237e-08
6.0063e-06
4.57209e-08
6.0102e-06
5.19801e-08
6.01376e-06
5.6143e-08
6.01693e-06
5.8959e-08
6.01969e-06
6.08949e-08
6.02204e-06
6.23604e-08
6.02399e-06
6.36464e-08
6.02557e-06
6.49471e-08
6.02681e-06
6.64082e-08
6.02774e-06
6.81459e-08
6.02841e-06
7.02546e-08
6.02891e-06
7.28039e-08
6.02934e-06
7.58359e-08
6.02984e-06
7.93562e-08
6.03057e-06
8.33155e-08
8.75012e-08
6.03169e-06
6.99647e-06
1.6856e-08
7.00044e-06
3.14481e-08
7.00481e-06
4.135e-08
7.00902e-06
4.77749e-08
7.01296e-06
5.22016e-08
7.01656e-06
5.53559e-08
7.01978e-06
5.76806e-08
7.0226e-06
5.95409e-08
7.02503e-06
6.12067e-08
7.02712e-06
6.28634e-08
7.02888e-06
6.46471e-08
7.03037e-06
6.66598e-08
7.03165e-06
6.89743e-08
7.03282e-06
7.16375e-08
7.03399e-06
7.46671e-08
7.0353e-06
7.80448e-08
7.03691e-06
8.17061e-08
8.54487e-08
7.03896e-06
8.16116e-06
1.47091e-08
8.16503e-06
2.75762e-08
8.16952e-06
3.68665e-08
8.17402e-06
4.32739e-08
8.17835e-06
4.78645e-08
8.18242e-06
5.12857e-08
8.18616e-06
5.39433e-08
8.18955e-06
5.6156e-08
8.19259e-06
5.81644e-08
8.19532e-06
6.01395e-08
8.19776e-06
6.21995e-08
8.2e-06
6.44292e-08
8.20209e-06
6.68811e-08
8.20415e-06
6.95811e-08
8.20629e-06
7.25271e-08
8.20865e-06
7.5686e-08
8.21137e-06
7.89875e-08
8.2247e-08
8.21457e-06
9.51981e-06
1.26233e-08
9.52359e-06
2.37986e-08
9.52817e-06
3.22839e-08
9.53298e-06
3.84719e-08
9.53775e-06
4.30917e-08
9.54236e-06
4.66771e-08
9.54672e-06
4.95814e-08
9.55081e-06
5.20751e-08
9.55461e-06
5.4362e-08
9.55816e-06
5.65889e-08
9.56151e-06
5.88544e-08
9.56472e-06
6.12221e-08
9.56787e-06
6.37272e-08
9.57107e-06
6.63785e-08
9.57444e-06
6.91592e-08
9.57809e-06
7.20299e-08
9.58216e-06
7.49226e-08
7.76759e-08
9.58673e-06
1.11047e-05
1.05824e-08
1.11085e-05
2.00683e-08
1.11132e-05
2.75716e-08
1.11183e-05
3.33248e-08
1.11236e-05
3.78041e-08
1.11289e-05
4.14159e-08
1.1134e-05
4.44481e-08
1.1139e-05
4.71171e-08
1.11438e-05
4.95877e-08
1.11484e-05
5.19738e-08
1.11529e-05
5.43516e-08
1.11573e-05
5.67648e-08
1.11618e-05
5.92319e-08
1.11665e-05
6.17487e-08
1.11713e-05
6.42919e-08
1.11765e-05
6.68211e-08
1.11822e-05
6.92759e-08
7.15232e-08
1.11883e-05
1.29537e-05
8.54373e-09
1.29574e-05
1.62937e-08
1.29624e-05
2.26386e-08
1.2968e-05
2.7729e-08
1.29739e-05
3.18657e-08
1.298e-05
3.53302e-08
1.29861e-05
3.83375e-08
1.29922e-05
4.10467e-08
1.29982e-05
4.35761e-08
1.30042e-05
4.60071e-08
1.30101e-05
4.83898e-08
1.30161e-05
5.07493e-08
1.30223e-05
5.30896e-08
1.30286e-05
5.53984e-08
1.30353e-05
5.76504e-08
1.30423e-05
5.98086e-08
1.30497e-05
6.18249e-08
6.3596e-08
1.30576e-05
1.51106e-05
6.42628e-09
1.51145e-05
1.23228e-08
1.51199e-05
1.731e-08
1.51261e-05
2.14949e-08
1.51329e-05
2.50578e-08
1.51401e-05
2.81716e-08
1.51474e-05
3.0972e-08
1.51549e-05
3.35599e-08
1.51625e-05
3.6005e-08
1.51701e-05
3.83541e-08
1.51779e-05
4.06313e-08
1.51858e-05
4.28434e-08
1.51939e-05
4.49834e-08
1.52023e-05
4.70338e-08
1.5211e-05
4.89696e-08
1.522e-05
5.0761e-08
1.52295e-05
5.23729e-08
5.37282e-08
1.52393e-05
1.76268e-05
4.10374e-09
1.76312e-05
7.92249e-09
1.76372e-05
1.12945e-08
1.76444e-05
1.43024e-08
1.76524e-05
1.70366e-08
1.7661e-05
1.95741e-08
1.767e-05
2.19711e-08
1.76793e-05
2.4266e-08
1.76888e-05
2.64818e-08
1.76985e-05
2.86281e-08
1.77085e-05
3.07037e-08
1.77186e-05
3.26983e-08
1.7729e-05
3.45948e-08
1.77397e-05
3.63724e-08
1.77506e-05
3.80079e-08
1.77619e-05
3.94783e-08
1.77735e-05
4.07589e-08
4.17959e-08
1.77855e-05
1.78286e-05
1.74386e-09
1.78331e-05
3.42909e-09
1.78393e-05
5.09256e-09
1.78467e-05
6.80766e-09
1.78552e-05
8.59455e-09
1.78643e-05
1.04422e-08
1.7874e-05
1.23328e-08
1.7884e-05
1.42467e-08
1.78943e-05
1.61641e-08
1.79049e-05
1.80616e-08
1.79157e-05
1.99143e-08
1.79267e-05
2.16966e-08
1.79379e-05
2.33835e-08
1.79493e-05
2.49506e-08
1.79609e-05
2.63759e-08
1.79728e-05
2.76403e-08
1.79848e-05
2.87258e-08
2.95944e-08
1.7997e-05
1.58836e-05
-4.79113e-10
1.58878e-05
-8.15363e-10
1.58937e-05
-7.79869e-10
1.59008e-05
-2.87863e-10
1.59088e-05
6.07819e-10
1.59174e-05
1.80478e-09
1.59265e-05
3.2159e-09
1.5936e-05
4.77399e-09
1.59457e-05
6.4206e-09
1.59557e-05
8.10426e-09
1.59658e-05
9.78014e-09
1.59761e-05
1.14104e-08
1.59865e-05
1.29629e-08
1.59971e-05
1.441e-08
1.60077e-05
1.57291e-08
1.60185e-05
1.69022e-08
1.60293e-05
1.79145e-08
1.87378e-08
1.60401e-05
1.41508e-05
-2.62265e-09
1.41549e-05
-4.94223e-09
1.41606e-05
-6.4848e-09
1.41675e-05
-7.12292e-09
1.41751e-05
-7.01875e-09
1.41833e-05
-6.38975e-09
1.41919e-05
-5.38842e-09
1.42008e-05
-4.12454e-09
1.42099e-05
-2.69135e-09
1.42192e-05
-1.16624e-09
1.42286e-05
3.89924e-10
1.4238e-05
1.92971e-09
1.42476e-05
3.41473e-09
1.42572e-05
4.81426e-09
1.42668e-05
6.10434e-09
1.42764e-05
7.26655e-09
1.42861e-05
8.28734e-09
9.14379e-09
1.42957e-05
1.26071e-05
-4.69649e-09
1.26112e-05
-9.03785e-09
1.26168e-05
-1.2133e-08
1.26235e-05
-1.37733e-08
1.26308e-05
-1.43295e-08
1.26386e-05
-1.41666e-08
1.26467e-05
-1.34889e-08
1.2655e-05
-1.24446e-08
1.26635e-05
-1.11609e-08
1.2672e-05
-9.73726e-09
1.26807e-05
-8.24649e-09
1.26893e-05
-6.74364e-09
1.2698e-05
-5.27245e-09
1.27067e-05
-3.867e-09
1.27154e-05
-2.55376e-09
1.2724e-05
-1.35239e-09
1.27326e-05
-2.76976e-10
6.51633e-10
1.27411e-05
1.12318e-05
-6.6537e-09
1.12359e-05
-1.31761e-08
1.12416e-05
-1.78074e-08
1.12481e-05
-2.02636e-08
1.12551e-05
-2.13294e-08
1.12624e-05
-2.15264e-08
1.127e-05
-2.10817e-08
1.12777e-05
-2.0179e-08
1.12856e-05
-1.8981e-08
1.12934e-05
-1.76047e-08
1.13013e-05
-1.61316e-08
1.13092e-05
-1.46227e-08
1.13171e-05
-1.3125e-08
1.13249e-05
-1.16748e-08
1.13326e-05
-1.02997e-08
1.13403e-05
-9.01978e-09
1.13478e-05
-7.8502e-09
-6.81164e-09
1.13553e-05
1.00063e-05
-8.37056e-09
1.00106e-05
-1.74565e-08
1.00164e-05
-2.35801e-08
1.00227e-05
-2.65875e-08
1.00294e-05
-2.80074e-08
1.00363e-05
-2.8461e-08
1.00434e-05
-2.81556e-08
1.00505e-05
-2.73194e-08
1.00577e-05
-2.61496e-08
1.00649e-05
-2.47744e-08
1.0072e-05
-2.32798e-08
1.00791e-05
-2.17305e-08
1.00862e-05
-2.01761e-08
1.00932e-05
-1.86543e-08
1.01e-05
-1.71935e-08
1.01068e-05
-1.58158e-08
1.01135e-05
-1.45416e-08
-1.33973e-08
1.01201e-05
8.91436e-06
-9.63179e-09
8.9189e-06
-2.19982e-08
8.92477e-06
-2.94479e-08
8.93086e-06
-3.26737e-08
8.93717e-06
-3.43149e-08
8.94362e-06
-3.49187e-08
8.95012e-06
-3.46538e-08
8.95662e-06
-3.38155e-08
8.96309e-06
-3.26284e-08
8.96954e-06
-3.12218e-08
8.97594e-06
-2.96818e-08
8.98229e-06
-2.80741e-08
8.98856e-06
-2.64485e-08
8.99475e-06
-2.48415e-08
9.00083e-06
-2.3279e-08
9.0068e-06
-2.17834e-08
9.01264e-06
-2.03741e-08
-1.90751e-08
9.01831e-06
7.94124e-06
-1.02045e-08
7.94628e-06
-2.70365e-08
7.95209e-06
-3.5257e-08
7.95778e-06
-3.83717e-08
7.96366e-06
-4.01944e-08
7.9696e-06
-4.08616e-08
7.9755e-06
-4.05474e-08
7.98133e-06
-3.96468e-08
7.9871e-06
-3.84021e-08
7.99282e-06
-3.69362e-08
7.99847e-06
-3.53323e-08
8.00406e-06
-3.36553e-08
8.00956e-06
-3.19525e-08
8.01498e-06
-3.02567e-08
8.02029e-06
-2.85925e-08
8.02549e-06
-2.69828e-08
8.03057e-06
-2.54541e-08
-2.4057e-08
8.03556e-06
7.07316e-06
-9.03875e-09
7.07931e-06
-3.31869e-08
7.08479e-06
-4.07411e-08
7.08987e-06
-4.34497e-08
7.09517e-06
-4.5495e-08
7.10048e-06
-4.61781e-08
7.10572e-06
-4.57826e-08
7.11088e-06
-4.48081e-08
7.11598e-06
-4.34944e-08
7.121e-06
-4.1956e-08
7.12595e-06
-4.02761e-08
7.13081e-06
-3.85187e-08
7.13559e-06
-3.67284e-08
7.14027e-06
-3.49346e-08
7.14483e-06
-3.31578e-08
7.14926e-06
-3.14101e-08
7.15351e-06
-2.96995e-08
-2.80361e-08
7.15749e-06
6.29731e-06
-3.83391e-09
6.30591e-06
-4.17873e-08
6.31134e-06
-4.61807e-08
6.31614e-06
-4.82464e-08
6.3209e-06
-5.02573e-08
6.32537e-06
-5.06469e-08
6.32961e-06
-5.00187e-08
6.33372e-06
-4.89105e-08
6.33773e-06
-4.75027e-08
6.34165e-06
-4.58825e-08
6.3455e-06
-4.41248e-08
6.34927e-06
-4.22895e-08
6.35296e-06
-4.0418e-08
6.35656e-06
-3.85371e-08
6.36006e-06
-3.66625e-08
6.36345e-06
-3.47965e-08
6.36669e-06
-3.29427e-08
-3.11138e-08
6.36977e-06
5.60125e-06
9.81834e-09
5.61114e-06
-5.1676e-08
5.61568e-06
-5.07193e-08
5.62069e-06
-5.32625e-08
5.6254e-06
-5.49562e-08
5.62924e-06
-5.44848e-08
5.63237e-06
-5.31519e-08
5.63498e-06
-5.15207e-08
5.63718e-06
-4.9707e-08
5.63907e-06
-4.77654e-08
5.64069e-06
-4.57503e-08
5.6421e-06
-4.37052e-08
5.64334e-06
-4.16588e-08
5.64444e-06
-3.96313e-08
5.6454e-06
-3.76285e-08
5.64624e-06
-3.56317e-08
5.64688e-06
-3.3584e-08
-3.12253e-08
5.647e-06
5.009e-06
3.1237e-09
5.0056e-06
-4.82693e-08
4.99761e-06
-4.27304e-08
4.99157e-06
-4.72226e-08
4.98552e-06
-4.89075e-08
4.97907e-06
-4.80292e-08
4.97215e-06
-4.62425e-08
4.96478e-06
-4.41468e-08
4.95698e-06
-4.19163e-08
4.94886e-06
-3.96408e-08
4.94049e-06
-3.7384e-08
4.93197e-06
-3.51847e-08
4.92338e-06
-3.30663e-08
4.91479e-06
-3.10411e-08
4.90627e-06
-2.91073e-08
4.89789e-06
-2.72459e-08
4.8897e-06
-2.53903e-08
-2.30932e-08
4.88157e-06
4.45968e-06
4.41141e-06
4.36868e-06
4.32145e-06
4.27254e-06
4.22451e-06
4.17827e-06
4.13412e-06
4.0922e-06
4.05256e-06
4.01518e-06
3.98e-06
3.94693e-06
3.91589e-06
3.88678e-06
3.85953e-06
3.83414e-06
3.81105e-06
-9.75749e-08
9.75616e-08
-2.53905e-07
1.56348e-07
-4.29302e-07
1.754e-07
-6.10492e-07
1.81186e-07
-7.9332e-07
1.82826e-07
-9.76325e-07
1.83e-07
-1.15869e-06
1.82367e-07
-1.33984e-06
1.81142e-07
-1.51927e-06
1.79437e-07
-1.69662e-06
1.77344e-07
-1.87155e-06
1.74939e-07
-2.04384e-06
1.72293e-07
-2.21331e-06
1.6947e-07
-2.37983e-06
1.66525e-07
-2.54334e-06
1.63506e-07
-2.70379e-06
1.6045e-07
-2.86118e-06
1.57388e-07
-3.01552e-06
1.54341e-07
-3.16684e-06
1.5132e-07
-3.31517e-06
1.48331e-07
-3.46054e-06
1.4537e-07
-3.60296e-06
1.42427e-07
-3.74245e-06
1.39486e-07
-3.87897e-06
1.36527e-07
-4.01249e-06
1.33522e-07
-4.14294e-06
1.30443e-07
-4.2702e-06
1.27258e-07
-4.39413e-06
1.23932e-07
-4.51456e-06
1.20426e-07
-4.63126e-06
1.16702e-07
-4.74399e-06
1.12722e-07
-4.85244e-06
1.08446e-07
-4.95627e-06
1.03834e-07
-5.05513e-06
9.88512e-08
-5.14859e-06
9.346e-08
-5.23621e-06
8.76269e-08
-5.31753e-06
8.13221e-08
-5.39205e-06
7.45216e-08
-5.45926e-06
6.72075e-08
-5.51863e-06
5.93687e-08
-5.56963e-06
5.10002e-08
-5.61174e-06
4.21033e-08
-5.64443e-06
3.26875e-08
-5.6672e-06
2.27745e-08
-5.6796e-06
1.23957e-08
-5.68117e-06
1.57439e-09
-5.67155e-06
-9.62054e-09
-5.65048e-06
-2.10704e-08
-5.61782e-06
-3.26627e-08
-5.57355e-06
-4.4267e-08
-5.5178e-06
-5.57492e-08
-5.45083e-06
-6.69742e-08
-5.37302e-06
-7.78089e-08
-5.2849e-06
-8.81265e-08
-5.18709e-06
-9.78108e-08
-5.08033e-06
-1.06759e-07
-4.96544e-06
-1.14887e-07
-4.84331e-06
-1.2213e-07
-4.71487e-06
-1.28444e-07
-4.58106e-06
-1.33807e-07
-4.44284e-06
-1.38218e-07
-4.30114e-06
-1.41693e-07
-4.15687e-06
-1.44268e-07
-4.01087e-06
-1.45991e-07
-3.86395e-06
-1.46923e-07
-3.71681e-06
-1.47135e-07
-3.57011e-06
-1.46699e-07
-3.42442e-06
-1.45695e-07
-3.28023e-06
-1.44198e-07
-3.13795e-06
-1.42285e-07
-2.99793e-06
-1.40027e-07
-2.86044e-06
-1.37494e-07
-2.7257e-06
-1.34748e-07
-2.59385e-06
-1.31847e-07
-2.46501e-06
-1.28843e-07
-2.33923e-06
-1.2578e-07
-2.21652e-06
-1.22699e-07
-2.09689e-06
-1.19631e-07
-1.98028e-06
-1.16602e-07
-1.86664e-06
-1.13636e-07
-1.7559e-06
-1.1075e-07
-1.64795e-06
-1.07952e-07
-1.5427e-06
-1.05251e-07
-1.44005e-06
-1.02659e-07
-1.33988e-06
-1.00178e-07
-1.24208e-06
-9.78014e-08
-1.14655e-06
-9.55389e-08
-1.05315e-06
-9.34033e-08
-9.61794e-07
-9.13697e-08
-8.72382e-07
-8.94212e-08
-7.84771e-07
-8.7618e-08
-6.98827e-07
-8.59466e-08
-6.14538e-07
-8.42902e-08
-5.31715e-07
-8.2825e-08
-4.50108e-07
-8.16117e-08
-3.69945e-07
-8.01699e-08
-2.91182e-07
-7.8771e-08
-2.13232e-07
-7.79595e-08
-1.35707e-07
-7.75332e-08
-5.85336e-08
-7.71823e-08
1.77703e-08
-7.63042e-08
9.28027e-08
-7.50394e-08
1.66302e-07
-7.35135e-08
2.38121e-07
-7.18294e-08
3.08263e-07
-7.01526e-08
3.76786e-07
-6.85266e-08
4.43753e-07
-6.69667e-08
5.09216e-07
-6.54674e-08
5.73221e-07
-6.4014e-08
6.35818e-07
-6.26011e-08
6.97046e-07
-6.12271e-08
7.56937e-07
-5.98888e-08
8.15521e-07
-5.85836e-08
8.72827e-07
-5.73088e-08
9.28881e-07
-5.60605e-08
9.83707e-07
-5.48337e-08
1.03733e-06
-5.36257e-08
1.08977e-06
-5.24377e-08
1.14104e-06
-5.12727e-08
1.19118e-06
-5.01306e-08
1.24019e-06
-4.90094e-08
1.28809e-06
-4.79085e-08
1.33492e-06
-4.68275e-08
1.38068e-06
-4.57645e-08
1.4254e-06
-4.4718e-08
1.46909e-06
-4.36892e-08
1.51177e-06
-4.26808e-08
1.55347e-06
-4.16936e-08
1.5942e-06
-4.07263e-08
1.63398e-06
-3.97776e-08
1.67284e-06
-3.88493e-08
1.71078e-06
-3.79418e-08
1.74784e-06
-3.70529e-08
1.78402e-06
-3.6181e-08
1.81935e-06
-3.53284e-08
1.85385e-06
-3.44958e-08
1.88752e-06
-3.36794e-08
1.9204e-06
-3.2877e-08
1.9525e-06
-3.20946e-08
1.98383e-06
-3.13368e-08
2.01442e-06
-3.05962e-08
2.04428e-06
-2.98619e-08
2.07342e-06
-2.91377e-08
2.10187e-06
-2.84393e-08
2.12964e-06
-2.77679e-08
2.15673e-06
-2.71021e-08
2.18316e-06
-2.64321e-08
2.20894e-06
-2.57756e-08
2.23409e-06
-2.5142e-08
2.25861e-06
-2.45199e-08
2.28252e-06
-2.3906e-08
2.30582e-06
-2.33019e-08
2.32852e-06
-2.27052e-08
2.35063e-06
-2.21137e-08
2.37214e-06
-2.15172e-08
2.39308e-06
-2.09266e-08
2.41344e-06
-2.03551e-08
2.43322e-06
-1.97839e-08
2.45243e-06
-1.92091e-08
2.47105e-06
-1.86252e-08
2.48909e-06
-1.80342e-08
2.50652e-06
-1.74292e-08
2.52333e-06
-1.68015e-08
2.53949e-06
-1.61594e-08
2.55496e-06
-1.54712e-08
2.56969e-06
-1.47309e-08
2.5836e-06
-1.391e-08
2.5966e-06
-1.29901e-08
2.60853e-06
-1.19408e-08
2.61923e-06
-1.07002e-08
2.62843e-06
-9.20196e-09
2.63579e-06
-7.36242e-09
2.64084e-06
-5.04935e-09
2.64306e-06
-2.21555e-09
2.64166e-06
1.40091e-09
2.63514e-06
6.51523e-09
2.62083e-06
1.43084e-08
2.59342e-06
2.73993e-08
2.54014e-06
5.32765e-08
1.27984e-07
2.41215e-06
-1.67236e-07
2.64788e-07
-3.30059e-07
3.19177e-07
-4.97157e-07
3.42501e-07
-6.69161e-07
3.53194e-07
-8.44082e-07
3.57746e-07
-1.02015e-06
3.59068e-07
-1.1961e-06
3.58316e-07
-1.37101e-06
3.56049e-07
-1.54419e-06
3.5262e-07
-1.71514e-06
3.48291e-07
-1.88348e-06
3.4328e-07
-2.04896e-06
3.37767e-07
-2.21139e-06
3.31901e-07
-2.37068e-06
3.25811e-07
-2.52677e-06
3.19598e-07
-2.67966e-06
3.13341e-07
-2.82937e-06
3.071e-07
-2.97594e-06
3.00915e-07
-3.11943e-06
2.94806e-07
-3.25987e-06
2.8878e-07
-3.39733e-06
2.82827e-07
-3.53183e-06
2.76925e-07
-3.66339e-06
2.71039e-07
-3.79199e-06
2.65126e-07
-3.9176e-06
2.59132e-07
-4.04016e-06
2.52997e-07
-4.15955e-06
2.46655e-07
-4.27565e-06
2.40033e-07
-4.38829e-06
2.33059e-07
-4.49724e-06
2.25655e-07
-4.60225e-06
2.17742e-07
-4.70305e-06
2.09242e-07
-4.79929e-06
2.00078e-07
-4.89062e-06
1.90177e-07
-4.97663e-06
1.79468e-07
-5.05689e-06
1.67887e-07
-5.13095e-06
1.55376e-07
-5.19832e-06
1.41885e-07
-5.25849e-06
1.27378e-07
-5.31096e-06
1.11833e-07
-5.3552e-06
9.52388e-08
-5.39069e-06
7.75982e-08
-5.41693e-06
5.89305e-08
-5.43344e-06
3.92757e-08
-5.43974e-06
1.87012e-08
-5.43548e-06
-2.69113e-09
-5.42034e-06
-2.47553e-08
-5.39412e-06
-4.72968e-08
-5.35668e-06
-7.01013e-08
-5.30802e-06
-9.29235e-08
-5.24826e-06
-1.15503e-07
-5.17766e-06
-1.37572e-07
-5.0966e-06
-1.58868e-07
-5.00559e-06
-1.79138e-07
-4.90524e-06
-1.98152e-07
-4.79629e-06
-2.15706e-07
-4.67954e-06
-2.31632e-07
-4.55587e-06
-2.45803e-07
-4.42618e-06
-2.58133e-07
-4.29142e-06
-2.68578e-07
-4.15251e-06
-2.77137e-07
-4.01036e-06
-2.83845e-07
-3.86586e-06
-2.88776e-07
-3.71982e-06
-2.92031e-07
-3.57301e-06
-2.93731e-07
-3.42613e-06
-2.94016e-07
-3.2798e-06
-2.93036e-07
-3.13455e-06
-2.90944e-07
-2.99085e-06
-2.87895e-07
-2.84909e-06
-2.84038e-07
-2.7096e-06
-2.79519e-07
-2.57262e-06
-2.74473e-07
-2.43834e-06
-2.69024e-07
-2.30691e-06
-2.63281e-07
-2.17841e-06
-2.57348e-07
-2.05288e-06
-2.51313e-07
-1.93034e-06
-2.4525e-07
-1.81076e-06
-2.39216e-07
-1.6941e-06
-2.33266e-07
-1.5803e-06
-2.27445e-07
-1.46927e-06
-2.21786e-07
-1.36092e-06
-2.16304e-07
-1.25514e-06
-2.11019e-07
-1.15184e-06
-2.05961e-07
-1.05088e-06
-2.01136e-07
-9.52153e-07
-1.9652e-07
-8.5556e-07
-1.9213e-07
-7.60957e-07
-1.88006e-07
-6.68221e-07
-1.84107e-07
-5.77279e-07
-1.8037e-07
-4.87985e-07
-1.76921e-07
-4.00161e-07
-1.73778e-07
-3.13773e-07
-1.70683e-07
-2.28727e-07
-1.67874e-07
-1.44743e-07
-1.65597e-07
-6.13486e-08
-1.63563e-07
2.12468e-08
-1.61366e-07
1.02302e-07
-1.5902e-07
1.81644e-07
-1.56883e-07
2.5937e-07
-1.54916e-07
3.35584e-07
-1.52514e-07
4.10144e-07
-1.49589e-07
4.83156e-07
-1.46519e-07
5.54745e-07
-1.43415e-07
6.24946e-07
-1.40357e-07
6.9378e-07
-1.37373e-07
7.61271e-07
-1.34468e-07
8.27446e-07
-1.31642e-07
8.92325e-07
-1.2889e-07
9.5593e-07
-1.26205e-07
1.01828e-06
-1.23582e-07
1.07941e-06
-1.21016e-07
1.13932e-06
-1.18502e-07
1.19804e-06
-1.16038e-07
1.25559e-06
-1.13619e-07
1.312e-06
-1.11244e-07
1.36729e-06
-1.08912e-07
1.42148e-06
-1.06622e-07
1.47458e-06
-1.04375e-07
1.52661e-06
-1.02168e-07
1.57759e-06
-1e-07
1.62755e-06
-9.78713e-08
1.67651e-06
-9.57822e-08
1.72448e-06
-9.37324e-08
1.77149e-06
-9.17222e-08
1.81757e-06
-8.97529e-08
1.86271e-06
-8.7825e-08
1.90696e-06
-8.59374e-08
1.95033e-06
-8.40891e-08
1.99283e-06
-8.22801e-08
2.03449e-06
-8.05111e-08
2.07533e-06
-7.87813e-08
2.11537e-06
-7.70894e-08
2.15463e-06
-7.54352e-08
2.19312e-06
-7.38193e-08
2.23087e-06
-7.22402e-08
2.26788e-06
-7.06958e-08
2.30419e-06
-6.91862e-08
2.33981e-06
-6.77121e-08
2.37474e-06
-6.62724e-08
2.40901e-06
-6.48655e-08
2.44264e-06
-6.34885e-08
2.47562e-06
-6.21351e-08
2.50798e-06
-6.08035e-08
2.53973e-06
-5.95026e-08
2.57087e-06
-5.82344e-08
2.60142e-06
-5.69845e-08
2.63138e-06
-5.57454e-08
2.66077e-06
-5.45261e-08
2.68958e-06
-5.33282e-08
2.71782e-06
-5.21439e-08
2.7455e-06
-5.09728e-08
2.77261e-06
-4.98158e-08
2.79917e-06
-4.86689e-08
2.82517e-06
-4.75231e-08
2.85061e-06
-4.63769e-08
2.87549e-06
-4.52355e-08
2.89979e-06
-4.40902e-08
2.92354e-06
-4.29412e-08
2.9467e-06
-4.17822e-08
2.96927e-06
-4.05986e-08
2.99125e-06
-3.93921e-08
3.01259e-06
-3.81457e-08
3.03328e-06
-3.6842e-08
3.05327e-06
-3.54646e-08
3.07252e-06
-3.39823e-08
3.09094e-06
-3.23468e-08
3.10847e-06
-3.05152e-08
3.12494e-06
-2.84272e-08
3.14021e-06
-2.59754e-08
3.15404e-06
-2.3038e-08
3.16611e-06
-1.94358e-08
3.17596e-06
-1.49144e-08
3.18287e-06
-9.1234e-09
3.18588e-06
-1.60106e-09
3.18356e-06
8.82327e-09
3.17343e-06
2.44481e-08
3.15115e-06
4.96663e-08
3.10889e-06
9.55498e-08
1.88122e-07
3.04875e-06
-1.61562e-07
4.2635e-07
-3.26138e-07
4.83745e-07
-4.90353e-07
5.0671e-07
-6.55092e-07
5.17926e-07
-8.20005e-07
5.22655e-07
-9.84342e-07
5.23403e-07
-1.14743e-06
5.21405e-07
-1.30874e-06
5.17358e-07
-1.46786e-06
5.11744e-07
-1.6245e-06
5.04937e-07
-1.77847e-06
4.9725e-07
-1.92964e-06
4.88942e-07
-2.07797e-06
4.80228e-07
-2.22344e-06
4.71287e-07
-2.36611e-06
4.62257e-07
-2.50601e-06
4.53244e-07
-2.64323e-06
4.44323e-07
-2.77786e-06
4.35539e-07
-2.90996e-06
4.2691e-07
-3.03962e-06
4.18434e-07
-3.16687e-06
4.10085e-07
-3.29177e-06
4.01821e-07
-3.41431e-06
3.93584e-07
-3.53448e-06
3.85301e-07
-3.65224e-06
3.76888e-07
-3.76749e-06
3.68253e-07
-3.88013e-06
3.59293e-07
-3.99e-06
3.49901e-07
-4.09691e-06
3.39966e-07
-4.20063e-06
3.2937e-07
-4.30088e-06
3.17998e-07
-4.39738e-06
3.0573e-07
-4.48975e-06
2.92454e-07
-4.57763e-06
2.78057e-07
-4.66059e-06
2.62434e-07
-4.73819e-06
2.45486e-07
-4.80994e-06
2.27126e-07
-4.87534e-06
2.07281e-07
-4.93386e-06
1.85894e-07
-4.98495e-06
1.62926e-07
-5.02807e-06
1.38361e-07
-5.06268e-06
1.12204e-07
-5.08824e-06
8.44897e-08
-5.10425e-06
5.52846e-08
-5.11024e-06
2.4693e-08
-5.10579e-06
-7.13863e-09
-5.09054e-06
-4.00051e-08
-5.06421e-06
-7.36205e-08
-5.02667e-06
-1.07645e-07
-4.97789e-06
-1.41703e-07
-4.918e-06
-1.75396e-07
-4.84726e-06
-2.08316e-07
-4.76607e-06
-2.40062e-07
-4.67496e-06
-2.70249e-07
-4.57459e-06
-2.98524e-07
-4.46571e-06
-3.24581e-07
-4.34918e-06
-3.48167e-07
-4.22589e-06
-3.69092e-07
-4.09679e-06
-3.87231e-07
-3.96284e-06
-4.02528e-07
-3.82498e-06
-4.14989e-07
-3.68415e-06
-4.24681e-07
-3.54121e-06
-4.31718e-07
-3.39699e-06
-4.36259e-07
-3.25223e-06
-4.38496e-07
-3.10761e-06
-4.38643e-07
-2.96371e-06
-4.36929e-07
-2.82107e-06
-4.3359e-07
-2.6801e-06
-4.28858e-07
-2.54117e-06
-4.2296e-07
-2.40458e-06
-4.16113e-07
-2.27053e-06
-4.0852e-07
-2.13919e-06
-4.0036e-07
-2.01068e-06
-3.91794e-07
-1.88505e-06
-3.82972e-07
-1.76234e-06
-3.74025e-07
-1.64254e-06
-3.65059e-07
-1.5256e-06
-3.56154e-07
-1.41148e-06
-3.47385e-07
-1.3001e-06
-3.38827e-07
-1.19135e-06
-3.30531e-07
-1.08515e-06
-3.22507e-07
-9.81393e-07
-3.14775e-07
-8.79962e-07
-3.07393e-07
-7.80715e-07
-3.00387e-07
-6.83549e-07
-2.93691e-07
-5.88375e-07
-2.87311e-07
-4.95037e-07
-2.81349e-07
-4.03371e-07
-2.75778e-07
-3.13331e-07
-2.70411e-07
-2.24819e-07
-2.65433e-07
-1.3757e-07
-2.61029e-07
-5.12976e-08
-2.56958e-07
3.37465e-08
-2.52921e-07
1.17109e-07
-2.48963e-07
1.98786e-07
-2.45242e-07
2.78928e-07
-2.41507e-07
3.57605e-07
-2.37694e-07
4.34702e-07
-2.33978e-07
5.10098e-07
-2.30311e-07
5.83978e-07
-2.26396e-07
6.56555e-07
-2.22166e-07
7.27847e-07
-2.1781e-07
7.97871e-07
-2.13436e-07
8.66626e-07
-2.09108e-07
9.3411e-07
-2.04855e-07
1.00033e-06
-2.00689e-07
1.0653e-06
-1.96613e-07
1.12904e-06
-1.92625e-07
1.19155e-06
-1.88721e-07
1.25286e-06
-1.84896e-07
1.31299e-06
-1.81146e-07
1.37195e-06
-1.77468e-07
1.42977e-06
-1.73859e-07
1.48646e-06
-1.70316e-07
1.54206e-06
-1.66838e-07
1.59657e-06
-1.63425e-07
1.65003e-06
-1.60075e-07
1.70244e-06
-1.56788e-07
1.75384e-06
-1.53562e-07
1.80423e-06
-1.50396e-07
1.85365e-06
-1.47292e-07
1.90212e-06
-1.44248e-07
1.94965e-06
-1.41265e-07
1.99628e-06
-1.38344e-07
2.04201e-06
-1.35487e-07
2.08688e-06
-1.32693e-07
2.13091e-06
-1.29961e-07
2.17411e-06
-1.27291e-07
2.21652e-06
-1.24682e-07
2.25814e-06
-1.22135e-07
2.29901e-06
-1.19648e-07
2.33914e-06
-1.17219e-07
2.37856e-06
-1.14849e-07
2.41727e-06
-1.12537e-07
2.45531e-06
-1.1028e-07
2.4927e-06
-1.08078e-07
2.52944e-06
-1.05932e-07
2.56556e-06
-1.03837e-07
2.60108e-06
-1.01789e-07
2.636e-06
-9.97876e-08
2.67035e-06
-9.78334e-08
2.70413e-06
-9.59206e-08
2.73736e-06
-9.40403e-08
2.77005e-06
-9.21937e-08
2.80221e-06
-9.03866e-08
2.83384e-06
-8.86119e-08
2.86495e-06
-8.68591e-08
2.89556e-06
-8.513e-08
2.92565e-06
-8.34249e-08
2.95525e-06
-8.17366e-08
2.98433e-06
-8.00623e-08
3.01291e-06
-7.83994e-08
3.041e-06
-7.67458e-08
3.06858e-06
-7.50987e-08
3.09565e-06
-7.34498e-08
3.12221e-06
-7.17959e-08
3.14825e-06
-7.01327e-08
3.17377e-06
-6.84567e-08
3.19874e-06
-6.67599e-08
3.22318e-06
-6.5028e-08
3.24705e-06
-6.32575e-08
3.27032e-06
-6.14237e-08
3.29299e-06
-5.95028e-08
3.31499e-06
-5.74714e-08
3.33629e-06
-5.52825e-08
3.35683e-06
-5.28834e-08
3.37651e-06
-5.02017e-08
3.39523e-06
-4.7144e-08
3.41283e-06
-4.35785e-08
3.42911e-06
-3.93191e-08
3.44379e-06
-3.41178e-08
3.45649e-06
-2.76118e-08
3.46663e-06
-1.92607e-08
3.47331e-06
-8.29034e-09
3.47535e-06
6.77947e-09
3.47109e-06
2.87078e-08
3.45815e-06
6.25928e-08
3.43467e-06
1.19028e-07
2.14548e-07
3.40824e-06
-1.50596e-07
5.76954e-07
-3.05264e-07
6.38426e-07
-4.58781e-07
6.60232e-07
-6.11152e-07
6.703e-07
-7.62224e-07
6.73728e-07
-9.11651e-07
6.72831e-07
-1.05912e-06
6.68876e-07
-1.20441e-06
6.62649e-07
-1.34738e-06
6.5471e-07
-1.48794e-06
6.45501e-07
-1.62608e-06
6.35389e-07
-1.76182e-06
6.24679e-07
-1.89521e-06
6.13621e-07
-2.02634e-06
6.02417e-07
-2.15531e-06
5.91223e-07
-2.28221e-06
5.80152e-07
-2.40717e-06
5.69277e-07
-2.53027e-06
5.58638e-07
-2.6516e-06
5.4824e-07
-2.77123e-06
5.38064e-07
-2.88921e-06
5.28064e-07
-3.00556e-06
5.18173e-07
-3.12028e-06
5.08305e-07
-3.23333e-06
4.98355e-07
-3.34465e-06
4.88209e-07
-3.45414e-06
4.77737e-07
-3.56164e-06
4.66803e-07
-3.667e-06
4.55261e-07
-3.77e-06
4.42961e-07
-3.87037e-06
4.29746e-07
-3.96783e-06
4.15459e-07
-4.06205e-06
3.99943e-07
-4.15264e-06
3.83043e-07
-4.23919e-06
3.64609e-07
-4.32125e-06
3.44497e-07
-4.39834e-06
3.22574e-07
-4.46994e-06
2.98718e-07
-4.53549e-06
2.72829e-07
-4.59442e-06
2.44823e-07
-4.64614e-06
2.14646e-07
-4.69005e-06
1.8227e-07
-4.72555e-06
1.47702e-07
-4.75204e-06
1.10987e-07
-4.76898e-06
7.22147e-08
-4.77581e-06
3.15246e-08
-4.77206e-06
-1.08919e-08
-4.75731e-06
-5.475e-08
-4.73128e-06
-9.9654e-08
-4.69379e-06
-1.45134e-07
-4.64482e-06
-1.9067e-07
-4.5845e-06
-2.35714e-07
-4.51312e-06
-2.79702e-07
-4.4311e-06
-3.22077e-07
-4.33904e-06
-3.62308e-07
-4.23766e-06
-3.9991e-07
-4.12777e-06
-4.34464e-07
-4.01031e-06
-4.65629e-07
-3.88625e-06
-4.93154e-07
-3.7566e-06
-5.16882e-07
-3.62238e-06
-5.36751e-07
-3.48458e-06
-5.5279e-07
-3.34416e-06
-5.65103e-07
-3.20201e-06
-5.73868e-07
-3.05895e-06
-5.79312e-07
-2.91574e-06
-5.81711e-07
-2.77301e-06
-5.81367e-07
-2.63134e-06
-5.786e-07
-2.49121e-06
-5.73729e-07
-2.353e-06
-5.67068e-07
-2.21704e-06
-5.58922e-07
-2.08357e-06
-5.49584e-07
-1.95277e-06
-5.39322e-07
-1.82476e-06
-5.28371e-07
-1.69963e-06
-5.16936e-07
-1.5774e-06
-5.05207e-07
-1.45806e-06
-4.93363e-07
-1.34158e-06
-4.81546e-07
-1.22789e-06
-4.69844e-07
-1.11693e-06
-4.5834e-07
-1.00862e-06
-4.47141e-07
-9.02812e-07
-4.36334e-07
-7.99405e-07
-4.25914e-07
-6.98316e-07
-4.15865e-07
-5.99428e-07
-4.06283e-07
-5.02561e-07
-3.97257e-07
-4.07595e-07
-3.88661e-07
-3.14479e-07
-3.80429e-07
-2.23095e-07
-3.72735e-07
-1.33177e-07
-3.65694e-07
-4.45e-08
-3.59086e-07
4.27238e-08
-3.52655e-07
1.28169e-07
-3.46473e-07
2.1186e-07
-3.40648e-07
2.93919e-07
-3.34979e-07
3.74388e-07
-3.29431e-07
4.53205e-07
-3.24056e-07
5.30442e-07
-3.18739e-07
6.06187e-07
-3.13436e-07
6.80407e-07
-3.08192e-07
7.53065e-07
-3.02965e-07
8.2429e-07
-2.97619e-07
8.94243e-07
-2.92118e-07
9.62973e-07
-2.86541e-07
1.03049e-06
-2.80959e-07
1.0968e-06
-2.75422e-07
1.16191e-06
-2.6996e-07
1.22581e-06
-2.64588e-07
1.28851e-06
-2.59313e-07
1.35002e-06
-2.54137e-07
1.41036e-06
-2.49059e-07
1.46954e-06
-2.44075e-07
1.52758e-06
-2.39184e-07