/*--------------------------------*- C++ -*----------------------------------*\
| =========                 |                                                 |
| \\      /  F ield         | OpenFOAM: The Open Source CFD Toolbox           |
|  \\    /   O peration     | Version:  2.2.x                                 |
|   \\  /    A nd           | Web:      www.OpenFOAM.org                      |
|    \\/     M anipulation  |                                                 |
\*---------------------------------------------------------------------------*/
FoamFile
{
    version     2.0;
    format      ascii;
    class       volVectorField;
    location    "100";
    object      U;
}
// * * * * * * * * * * * * * * * * * * * * * * * * * * * * * * * * * * * * * //

dimensions      [0 1 -1 0 0 0 0];

internalField   nonuniform List<vector> 
12225
(
(9.83956 -1.23838 0)
(9.73793 -0.731409 0)
(9.53504 -0.467187 0)
(9.31958 -0.307176 0)
(9.11861 -0.205631 0)
(8.93227 -0.139161 0)
(8.7588 -0.0943921 0)
(8.59732 -0.0635602 0)
(8.44697 -0.0419573 0)
(8.30669 -0.0265986 0)
(8.17536 -0.0155303 0)
(8.05189 -0.00744094 0)
(7.93522 -0.00142675 0)
(7.82421 0.00316465 0)
(7.71748 0.00686117 0)
(7.61314 0.010327 0)
(7.50373 0.015443 0)
(7.40189 -0.00841371 0)
(10.0333 0.447521 0)
(10.0218 0.427219 0)
(9.98639 0.340679 0)
(9.93931 0.271596 0)
(9.89073 0.218624 0)
(9.83988 0.178278 0)
(9.78598 0.148018 0)
(9.72963 0.12539 0)
(9.67161 0.108385 0)
(9.61245 0.095538 0)
(9.55245 0.0858103 0)
(9.49179 0.0784764 0)
(9.43049 0.0730474 0)
(9.36833 0.0692411 0)
(9.30482 0.0670205 0)
(9.23916 0.0668793 0)
(9.17141 0.0708456 0)
(9.10229 0.0934104 0)
(9.99276 0.0270188 0)
(10.0015 -0.0082377 0)
(10.016 -0.0267386 0)
(10.0213 -0.0212525 0)
(10.0223 -0.00948377 0)
(10.0201 0.00230903 0)
(10.0143 0.0129524 0)
(10.0054 0.0221632 0)
(9.99396 0.0299375 0)
(9.98039 0.036461 0)
(9.96482 0.0420031 0)
(9.94731 0.0468565 0)
(9.9278 0.0513305 0)
(9.90616 0.0557872 0)
(9.88208 0.0607342 0)
(9.85527 0.0670233 0)
(9.82623 0.0759388 0)
(9.79335 0.0866283 0)
(9.99983 0.0200138 0)
(10.0116 0.0440912 0)
(10.0289 0.0568392 0)
(10.0378 0.0669227 0)
(10.043 0.0728403 0)
(10.0466 0.0752169 0)
(10.0484 0.0757578 0)
(10.0486 0.075527 0)
(10.0474 0.075056 0)
(10.0449 0.0746568 0)
(10.041 0.0745479 0)
(10.0359 0.0749075 0)
(10.0292 0.0759217 0)
(10.021 0.0778414 0)
(10.011 0.081058 0)
(9.99931 0.0861882 0)
(9.98641 0.0939931 0)
(9.97187 0.10417 0)
(10.0021 0.0191364 0)
(10.0136 0.0417959 0)
(10.0283 0.0483764 0)
(10.037 0.0513927 0)
(10.0432 0.0535221 0)
(10.0484 0.0548959 0)
(10.0524 0.056063 0)
(10.0551 0.0573605 0)
(10.0567 0.0588804 0)
(10.0573 0.0606651 0)
(10.0567 0.062782 0)
(10.055 0.0653374 0)
(10.0521 0.0684932 0)
(10.048 0.0724949 0)
(10.0425 0.0777067 0)
(10.0359 0.0846219 0)
(10.0286 0.0937514 0)
(10.0205 0.104922 0)
(10.0024 0.0195192 0)
(10.0123 0.0382574 0)
(10.0251 0.0451863 0)
(10.0339 0.0492907 0)
(10.0406 0.0529014 0)
(10.0464 0.0557457 0)
(10.051 0.0580546 0)
(10.0545 0.0601486 0)
(10.057 0.0622124 0)
(10.0585 0.0643823 0)
(10.059 0.0668034 0)
(10.0586 0.0696418 0)
(10.0572 0.0731016 0)
(10.0548 0.0774425 0)
(10.0514 0.082998 0)
(10.0473 0.0901591 0)
(10.0428 0.0992913 0)
(10.0381 0.110343 0)
(10.002 0.0173732 0)
(10.0103 0.033291 0)
(10.0214 0.0411361 0)
(10.0301 0.046067 0)
(10.0369 0.0500912 0)
(10.0428 0.0532387 0)
(10.0477 0.0557879 0)
(10.0515 0.0581004 0)
(10.0545 0.0604121 0)
(10.0565 0.0628887 0)
(10.0577 0.0656859 0)
(10.058 0.0689704 0)
(10.0575 0.0729367 0)
(10.0562 0.077817 0)
(10.0543 0.0838855 0)
(10.0518 0.0914333 0)
(10.0493 0.100705 0)
(10.0469 0.111625 0)
(10.0017 0.0155611 0)
(10.0088 0.029915 0)
(10.0185 0.0382077 0)
(10.0267 0.0435637 0)
(10.0334 0.0478128 0)
(10.0393 0.051223 0)
(10.0443 0.0540781 0)
(10.0483 0.0567126 0)
(10.0515 0.0593608 0)
(10.0539 0.0621913 0)
(10.0555 0.0653587 0)
(10.0564 0.0690274 0)
(10.0565 0.0733801 0)
(10.0561 0.0786248 0)
(10.0551 0.0849868 0)
(10.0538 0.0926875 0)
(10.0526 0.101895 0)
(10.0518 0.112504 0)
(10.0015 0.0141055 0)
(10.0075 0.0272104 0)
(10.0161 0.0355339 0)
(10.0238 0.0411299 0)
(10.0303 0.0455638 0)
(10.0361 0.0491976 0)
(10.0411 0.0523105 0)
(10.0453 0.0552115 0)
(10.0487 0.0581309 0)
(10.0513 0.0612404 0)
(10.0533 0.0646951 0)
(10.0546 0.0686554 0)
(10.0553 0.073292 0)
(10.0555 0.0787873 0)
(10.0554 0.0853252 0)
(10.0551 0.0930722 0)
(10.055 0.102137 0)
(10.0554 0.112379 0)
(10.0013 0.0126914 0)
(10.0064 0.0245392 0)
(10.0138 0.0326941 0)
(10.0209 0.0384452 0)
(10.0271 0.0430417 0)
(10.0327 0.0468847 0)
(10.0377 0.050247 0)
(10.0419 0.0534119 0)
(10.0455 0.056602 0)
(10.0485 0.0599879 0)
(10.0508 0.0637226 0)
(10.0526 0.0679569 0)
(10.0539 0.0728442 0)
(10.0549 0.0785364 0)
(10.0556 0.0851755 0)
(10.0563 0.0928769 0)
(10.0573 0.101696 0)
(10.0588 0.111466 0)
(10.0011 0.0112947 0)
(10.0054 0.0218987 0)
(10.0117 0.0297353 0)
(10.0181 0.0355355 0)
(10.024 0.0402383 0)
(10.0294 0.0442485 0)
(10.0343 0.0478301 0)
(10.0386 0.0512375 0)
(10.0423 0.05468 0)
(10.0456 0.0583218 0)
(10.0483 0.0623084 0)
(10.0506 0.0667765 0)
(10.0526 0.071856 0)
(10.0543 0.077666 0)
(10.0559 0.0843081 0)
(10.0577 0.0918509 0)
(10.0597 0.100306 0)
(10.0624 0.109488 0)
(10.001 0.00992552 0)
(10.0045 0.0193204 0)
(10.0098 0.026695 0)
(10.0156 0.0324168 0)
(10.0211 0.0371503 0)
(10.0262 0.0412696 0)
(10.031 0.0450221 0)
(10.0354 0.0486312 0)
(10.0394 0.052286 0)
(10.0429 0.0561402 0)
(10.046 0.060325 0)
(10.0489 0.0649579 0)
(10.0515 0.0701418 0)
(10.054 0.0759634 0)
(10.0566 0.0824866 0)
(10.0593 0.089741 0)
(10.0623 0.0977049 0)
(10.0661 0.106189 0)
(10.0008 0.00859389 0)
(10.0037 0.0168113 0)
(10.0083 0.0235897 0)
(10.0134 0.0290909 0)
(10.0185 0.0337576 0)
(10.0235 0.0379059 0)
(10.0282 0.0417561 0)
(10.0326 0.0454998 0)
(10.0368 0.0493005 0)
(10.0406 0.0532945 0)
(10.0443 0.0575934 0)
(10.0477 0.0622908 0)
(10.051 0.0674628 0)
(10.0543 0.0731657 0)
(10.0577 0.0794303 0)
(10.0614 0.0862574 0)
(10.0654 0.093604 0)
(10.0701 0.101285 0)
(10.0007 0.00729687 0)
(10.0031 0.0143528 0)
(10.007 0.0204135 0)
(10.0116 0.0255424 0)
(10.0164 0.0300187 0)
(10.0212 0.0340874 0)
(10.0259 0.0379331 0)
(10.0304 0.0417129 0)
(10.0348 0.0455622 0)
(10.039 0.0495913 0)
(10.0431 0.0538891 0)
(10.0472 0.058524 0)
(10.0512 0.0635458 0)
(10.0553 0.0689837 0)
(10.0595 0.0748434 0)
(10.064 0.0811058 0)
(10.0689 0.0877164 0)
(10.0744 0.0945053 0)
(10.0006 0.00601552 0)
(10.0027 0.0118995 0)
(10.0061 0.017126 0)
(10.0103 0.0217218 0)
(10.0148 0.0258571 0)
(10.0195 0.029706 0)
(10.0242 0.033412 0)
(10.0289 0.037096 0)
(10.0336 0.0408608 0)
(10.0382 0.0447885 0)
(10.0428 0.0489417 0)
(10.0474 0.0533645 0)
(10.0521 0.0580826 0)
(10.0569 0.0631029 0)
(10.0619 0.0684142 0)
(10.0672 0.073985 0)
(10.0727 0.0797582 0)
(10.0788 0.0855863 0)
(10.0005 0.00471069 0)
(10.0024 0.00937133 0)
(10.0055 0.0136359 0)
(10.0094 0.0175255 0)
(10.0138 0.0211426 0)
(10.0185 0.024601 0)
(10.0233 0.0280004 0)
(10.0282 0.0314245 0)
(10.0332 0.0349415 0)
(10.0382 0.0386041 0)
(10.0433 0.042449 0)
(10.0485 0.0464968 0)
(10.0538 0.0507534 0)
(10.0592 0.0552098 0)
(10.0649 0.0598432 0)
(10.0707 0.0646173 0)
(10.0768 0.0694793 0)
(10.0834 0.0743071 0)
(10.0005 0.00331962 0)
(10.0023 0.00664708 0)
(10.0052 0.00979049 0)
(10.0091 0.0127793 0)
(10.0134 0.0156745 0)
(10.0182 0.0185416 0)
(10.0232 0.0214372 0)
(10.0284 0.0244078 0)
(10.0337 0.0274883 0)
(10.0392 0.0307027 0)
(10.0448 0.0340631 0)
(10.0505 0.0375704 0)
(10.0563 0.0412146 0)
(10.0623 0.0449762 0)
(10.0684 0.0488264 0)
(10.0747 0.0527291 0)
(10.0812 0.0566388 0)
(10.0881 0.060459 0)
(10.0005 0.00185393 0)
(10.0023 0.00375576 0)
(10.0053 0.00565368 0)
(10.0092 0.00759193 0)
(10.0137 0.00960517 0)
(10.0187 0.0117184 0)
(10.024 0.0139498 0)
(10.0295 0.0163112 0)
(10.0352 0.0188085 0)
(10.0411 0.0214408 0)
(10.0471 0.0242001 0)
(10.0532 0.0270717 0)
(10.0594 0.030035 0)
(10.0658 0.033064 0)
(10.0722 0.0361284 0)
(10.0788 0.039195 0)
(10.0855 0.0422258 0)
(10.0925 0.0451466 0)
(10.0005 0.000414042 0)
(10.0024 0.000901211 0)
(10.0056 0.00154535 0)
(10.0098 0.00241401 0)
(10.0146 0.00351985 0)
(10.0198 0.00484864 0)
(10.0254 0.00638296 0)
(10.0313 0.00810588 0)
(10.0374 0.00999905 0)
(10.0436 0.0120414 0)
(10.0499 0.0142092 0)
(10.0564 0.016477 0)
(10.0629 0.018817 0)
(10.0695 0.0211996 0)
(10.0761 0.0235945 0)
(10.0829 0.025971 0)
(10.0897 0.0282964 0)
(10.0967 0.0305128 0)
(10.0006 -0.000962555 0)
(10.0026 -0.00184369 0)
(10.0061 -0.00240605 0)
(10.0106 -0.00254405 0)
(10.0158 -0.00227834 0)
(10.0214 -0.00167076 0)
(10.0274 -0.000772615 0)
(10.0336 0.000374728 0)
(10.04 0.00173156 0)
(10.0465 0.00325959 0)
(10.0531 0.00492281 0)
(10.0597 0.00668718 0)
(10.0665 0.00852034 0)
(10.0732 0.0103907 0)
(10.08 0.012268 0)
(10.0868 0.0141233 0)
(10.0936 0.0159279 0)
(10.1007 0.0176356 0)
(10.0006 -0.00229575 0)
(10.0029 -0.0045445 0)
(10.0068 -0.00628421 0)
(10.0117 -0.00734915 0)
(10.0174 -0.00783384 0)
(10.0234 -0.00786741 0)
(10.0297 -0.00753154 0)
(10.0362 -0.00688959 0)
(10.0429 -0.00600178 0)
(10.0497 -0.00492181 0)
(10.0565 -0.00369453 0)
(10.0634 -0.0023584 0)
(10.0703 -0.000949035 0)
(10.0772 0.000500676 0)
(10.084 0.00196007 0)
(10.0909 0.00340059 0)
(10.0977 0.00479551 0)
(10.1047 0.00610392 0)
(10.0006 -0.00357416 0)
(10.0031 -0.00724851 0)
(10.0075 -0.0101484 0)
(10.0131 -0.0120277 0)
(10.0192 -0.0131429 0)
(10.0256 -0.0137113 0)
(10.0323 -0.0138364 0)
(10.0392 -0.0136013 0)
(10.0461 -0.013086 0)
(10.0531 -0.0123567 0)
(10.0601 -0.011465 0)
(10.0671 -0.010454 0)
(10.0741 -0.00936187 0)
(10.0811 -0.00822276 0)
(10.088 -0.00706776 0)
(10.0949 -0.00592448 0)
(10.1017 -0.00481774 0)
(10.1086 -0.00378214 0)
(10.0006 -0.00475546 0)
(10.0033 -0.0100132 0)
(10.0084 -0.0140697 0)
(10.0147 -0.0166535 0)
(10.0213 -0.018319 0)
(10.0281 -0.0193608 0)
(10.0351 -0.0198907 0)
(10.0422 -0.0200191 0)
(10.0494 -0.0198482 0)
(10.0566 -0.0194508 0)
(10.0637 -0.0188795 0)
(10.0709 -0.0181771 0)
(10.0779 -0.0173812 0)
(10.085 -0.0165251 0)
(10.0919 -0.0156391 0)
(10.0987 -0.0147509 0)
(10.1055 -0.0138889 0)
(10.1123 -0.0130941 0)
(10.0004 -0.00575801 0)
(10.0033 -0.0128755 0)
(10.0093 -0.017869 0)
(10.0163 -0.0208662 0)
(10.0234 -0.0229177 0)
(10.0305 -0.02428 0)
(10.0378 -0.0250315 0)
(10.0451 -0.0253279 0)
(10.0524 -0.0253076 0)
(10.0596 -0.025058 0)
(10.0669 -0.0246375 0)
(10.074 -0.0240921 0)
(10.0811 -0.0234596 0)
(10.0881 -0.0227709 0)
(10.095 -0.0220522 0)
(10.1017 -0.0213282 0)
(10.1084 -0.020624 0)
(10.115 -0.0199736 0)
(9.99995 -0.00653437 0)
(10.003 -0.016723 0)
(10.0101 -0.0225476 0)
(10.0179 -0.0257227 0)
(10.0252 -0.0282268 0)
(10.0326 -0.0301324 0)
(10.0401 -0.0313914 0)
(10.0475 -0.0321461 0)
(10.0548 -0.0325261 0)
(10.062 -0.0326117 0)
(10.0692 -0.0324646 0)
(10.0763 -0.0321386 0)
(10.0832 -0.0316789 0)
(10.0901 -0.0311219 0)
(10.0969 -0.0304978 0)
(10.1035 -0.0298373 0)
(10.11 -0.0291769 0)
(10.1165 -0.0285787 0)
(9.99854 -0.00449429 0)
(10.0013 -0.0192046 0)
(10.0102 -0.0254494 0)
(10.0185 -0.0275686 0)
(10.0258 -0.0289061 0)
(10.0331 -0.0297756 0)
(10.0406 -0.0303155 0)
(10.048 -0.0307098 0)
(10.0552 -0.0310216 0)
(10.0624 -0.0312503 0)
(10.0694 -0.0313924 0)
(10.0764 -0.0314505 0)
(10.0832 -0.0314296 0)
(10.0899 -0.031334 0)
(10.0964 -0.0311695 0)
(10.1028 -0.0309457 0)
(10.1089 -0.0306786 0)
(10.1149 -0.0304071 0)
(9.99491 -0.00281386 0)
(9.99642 -0.0248977 0)
(10.0086 -0.0382663 0)
(10.0182 -0.0471002 0)
(10.0256 -0.0525582 0)
(10.0327 -0.0550652 0)
(10.0396 -0.0557238 0)
(10.0463 -0.0553883 0)
(10.0527 -0.0545055 0)
(10.059 -0.0533167 0)
(10.0651 -0.051972 0)
(10.0712 -0.0505663 0)
(10.0771 -0.0491548 0)
(10.0829 -0.0477654 0)
(10.0885 -0.0464093 0)
(10.094 -0.0450838 0)
(10.0992 -0.0437865 0)
(10.1045 -0.0425362 0)
(9.9853 0.00601381 0)
(9.98245 0.025409 0)
(9.99549 0.0373531 0)
(10.0061 0.0332889 0)
(10.0147 0.023776 0)
(10.0223 0.0140883 0)
(10.0285 0.00527556 0)
(10.0336 -0.00246852 0)
(10.0379 -0.00907526 0)
(10.0415 -0.0145883 0)
(10.0446 -0.0191234 0)
(10.0473 -0.0228158 0)
(10.0496 -0.0257918 0)
(10.0517 -0.028161 0)
(10.0535 -0.030011 0)
(10.0551 -0.0313962 0)
(10.0565 -0.0323352 0)
(10.0573 -0.03273 0)
(10.0138 -0.317194 0)
(10.0107 -0.326021 0)
(10.0003 -0.271058 0)
(9.98535 -0.224262 0)
(9.97231 -0.18737 0)
(9.96006 -0.157868 0)
(9.94697 -0.134615 0)
(9.93272 -0.116415 0)
(9.91752 -0.102097 0)
(9.90157 -0.0907312 0)
(9.88505 -0.0816225 0)
(9.86813 -0.0742523 0)
(9.85099 -0.0682273 0)
(9.83379 -0.0632476 0)
(9.81666 -0.0590756 0)
(9.79973 -0.0555025 0)
(9.78316 -0.0523013 0)
(9.76645 -0.0488521 0)
(9.95423 0.913114 0)
(9.95463 0.561078 0)
(9.86765 0.37555 0)
(9.75543 0.25872 0)
(9.6428 0.180749 0)
(9.53341 0.127261 0)
(9.42752 0.0895631 0)
(9.32591 0.0624253 0)
(9.2292 0.0426067 0)
(9.13762 0.0279866 0)
(9.05117 0.0171203 0)
(8.96974 0.00900133 0)
(8.89317 0.00291587 0)
(8.82126 -0.00164971 0)
(8.75378 -0.00506557 0)
(8.69054 -0.00759284 0)
(8.63156 -0.00937817 0)
(8.57509 -0.0102525 0)
(-0.0461782 0.103504 0)
(-0.151398 0.187668 0)
(-0.297215 0.209382 0)
(-0.457498 0.209877 0)
(-0.61909 0.205551 0)
(-0.781424 0.200615 0)
(-0.943709 0.195689 -1.47e-21)
(-1.10532 0.190794 2.22973e-21)
(-1.26578 0.185903 0)
(-1.42469 0.18101 3.62497e-21)
(-1.58174 0.176126 0)
(-1.73668 0.171273 0)
(-1.88933 0.166476 0)
(-2.03955 0.161761 -6.08514e-21)
(-2.18726 0.157149 0)
(-2.3324 0.152658 0)
(-2.47497 0.148297 7.71613e-21)
(-2.61496 0.144072 0)
(-2.7524 0.139982 0)
(-2.8873 0.13602 0)
(-3.01971 0.132173 -9.65838e-21)
(-3.14964 0.128426 0)
(-3.27711 0.124759 -1.05399e-20)
(-3.4021 0.121148 0)
(-3.52459 0.117568 0)
(-3.64453 0.11399 -1.17543e-20)
(-3.76183 0.110385 0)
(-3.87639 0.106722 1.24894e-20)
(-3.98806 0.102972 0)
(-4.09666 0.099103 -1.31587e-20)
(-4.20198 0.095086 0)
(-4.30377 0.0908921 0)
(-4.40173 0.0864935 0)
(-4.49553 0.0818641 0)
(-4.58482 0.0769794 0)
(-4.6692 0.0718185 1.46674e-20)
(-4.74827 0.0663651 0)
(-4.8216 0.0606078 -2.99029e-20)
(-4.8887 0.054539 0)
(-4.94906 0.0481547 3.01828e-20)
(-5.00215 0.0414543 0)
(-5.04748 0.0344413 0)
(-5.08463 0.0271221 -2.99475e-20)
(-5.11319 0.019504 0)
(-5.1327 0.0116002 -2.92875e-20)
(-5.14255 0.00344046 2.87743e-20)
(-5.14223 -0.00490378 0)
(-5.13158 -0.0133566 2.72573e-20)
(-5.11038 -0.0218469 2.62846e-20)
(-5.07853 -0.0302793 0)
(-5.03607 -0.0385568 0)
(-4.98314 -0.0465828 0)
(-4.92004 -0.0542637 0)
(-4.84716 -0.0615116 0)
(-4.76503 -0.0682478 -1.726e-20)
(-4.67428 -0.0744049 0)
(-4.57561 -0.0799295 1.30293e-20)
(-4.46981 -0.0847832 0)
(-4.35772 -0.0889431 0)
(-4.24019 -0.0924015 -5.59169e-21)
(-4.11811 -0.0951653 0)
(-3.99234 -0.0972552 -6.00476e-23)
(-3.86373 -0.0987042 0)
(-3.73306 -0.0995551 0)
(-3.60111 -0.0998586 0)
(-3.46855 -0.0996698 1.29578e-20)
(-3.33601 -0.0990466 0)
(-3.20405 -0.0980476 0)
(-3.07313 -0.0967309 2.40441e-20)
(-2.94368 -0.0951528 0)
(-2.81604 -0.0933668 3.21657e-20)
(-2.69048 -0.0914222 0)
(-2.56722 -0.0893646 0)
(-2.44642 -0.087235 0)
(-2.3282 -0.0850693 -5.04827e-20)
(-2.21263 -0.0828981 0)
(-2.09975 -0.0807471 0)
(-1.98955 -0.078637 -6.65087e-20)
(-1.88202 -0.0765858 -7.24029e-20)
(-1.7771 -0.0746082 0)
(-1.67472 -0.0727149 -8.52073e-20)
(-1.57482 -0.0709157 0)
(-1.4773 -0.0692208 -1.99293e-19)
(-1.38206 -0.0676351 0)
(-1.28902 -0.0661564 -2.32328e-19)
(-1.19807 -0.064784 0)
(-1.10911 -0.0635211 2.70755e-19)
(-1.02203 -0.0623585 0)
(-0.936741 -0.0612869 0)
(-0.853114 -0.0603238 0)
(-0.771035 -0.0594885 -3.71736e-19)
(-0.690444 -0.0587825 0)
(-0.611233 -0.0582434 4.41039e-19)
(-0.533244 -0.0579597 0)
(-0.456498 -0.0579489 -5.30992e-19)
(-0.380806 -0.0582015 -5.87232e-19)
(-0.305484 -0.0588847 -6.53714e-19)
(-0.231164 -0.060033 0)
(-0.158487 -0.0612707 0)
(-0.0878722 -0.0618921 0)
(-0.0134742 -0.0605236 0)
(0.0584601 -0.0574689 0)
(0.1282 -0.0542624 0)
(0.196631 -0.0512996 0)
(0.263704 -0.0486037 0)
(0.329444 -0.0461552 6.76428e-19)
(0.393893 -0.0439302 6.33237e-19)
(0.457087 -0.0418985 0)
(0.519054 -0.0400284 0)
(0.579825 -0.0382966 0)
(0.639436 -0.0366857 5.11776e-19)
(0.697916 -0.0351806 0)
(0.755288 -0.0337686 0)
(0.811573 -0.0324396 0)
(0.866794 -0.0311847 0)
(0.920969 -0.0299954 -4.22095e-19)
(0.974115 -0.028864 0)
(1.02625 -0.0277857 0)
(1.0774 -0.0267573 3.85404e-19)
(1.12758 -0.0257755 -3.75041e-19)
(1.17679 -0.0248362 0)
(1.22507 -0.0239361 -3.56519e-19)
(1.27242 -0.023073 0)
(1.31887 -0.0222445 3.40451e-19)
(1.36442 -0.0214483 0)
(1.4091 -0.0206825 0)
(1.45292 -0.0199465 0)
(1.49589 -0.0192397 0)
(1.53804 -0.0185602 0)
(1.57939 -0.0179053 -6.05854e-19)
(1.61994 -0.0172739 -5.95714e-19)
(1.65973 -0.016666 0)
(1.69876 -0.0160809 0)
(1.73704 -0.0155171 0)
(1.7746 -0.014974 5.60135e-19)
(1.81145 -0.0144516 0)
(1.84761 -0.0139489 0)
(1.8831 -0.0134637 0)
(1.91792 -0.0129954 5.30965e-19)
(1.95211 -0.0125455 -5.24482e-19)
(1.98568 -0.0121141 0)
(2.01864 -0.0116982 0)
(2.05099 -0.0112946 -5.06669e-19)
(2.08276 -0.0109042 -5.01225e-19)
(2.11397 -0.0105302 0)
(2.14463 -0.0101728 0)
(2.17474 -0.00982764 4.86192e-19)
(2.2043 -0.00949229 -4.81578e-19)
(2.23333 -0.00916782 0)
(2.26186 -0.00885464 0)
(2.28989 -0.00855266 -4.68799e-19)
(2.31741 -0.00826228 0)
(2.34445 -0.00798312 0)
(2.371 -0.0077145 -4.57451e-19)
(2.39707 -0.00745266 0)
(2.42265 -0.00719524 -4.506e-19)
(2.44777 -0.00694538 0)
(2.47243 -0.00670277 0)
(2.49661 -0.0064663 0)
(2.52033 -0.00623503 4.38436e-19)
(2.54355 -0.00600765 0)
(2.56628 -0.00578172 0)
(2.5885 -0.00555308 0)
(2.61017 -0.00532257 0)
(2.63128 -0.00508462 0)
(2.65176 -0.00483585 0)
(2.67156 -0.00456965 4.21836e-19)
(2.69055 -0.00427769 4.20015e-19)
(2.70865 -0.00395128 0)
(2.72567 -0.00357518 0)
(2.74137 -0.00312966 0)
(2.75545 -0.00259377 -4.1493e-19)
(2.76747 -0.00193933 0)
(2.77682 -0.0011579 8.29042e-19)
(2.7829 -0.00017914 -8.29939e-19)
(2.78463 0.00119185 -8.31867e-19)
(2.77986 0.00327313 8.36002e-19)
(2.76433 0.00681481 -8.43551e-19)
(2.73342 0.0138516 8.57064e-19)
(2.62204 0.0369795 0)
(-0.103627 0.347011 0)
(-0.219362 0.439097 0)
(-0.361137 0.475078 -2.42268e-21)
(-0.513202 0.488084 0)
(-0.667585 0.491176 -2.63589e-22)
(-0.823486 0.489722 -1.45526e-21)
(-0.979925 0.48557 -1.55775e-21)
(-1.13597 0.479512 -1.63242e-21)
(-1.2909 0.472017 0)
(-1.4442 0.463432 -2.75165e-21)
(-1.59547 0.45404 0)
(-1.74444 0.444077 0)
(-1.89091 0.433743 8.93209e-21)
(-2.03476 0.423205 4.8185e-21)
(-2.17593 0.4126 -1.0824e-20)
(-2.31438 0.402034 -1.17289e-20)
(-2.45014 0.391587 -6.21784e-21)
(-2.58322 0.381311 0)
(-2.71367 0.371238 0)
(-2.84154 0.361374 0)
(-2.96686 0.351712 -7.97016e-21)
(-3.08968 0.342226 0)
(-3.21002 0.332876 2.59534e-20)
(-3.32788 0.323612 0)
(-3.44324 0.314373 0)
(-3.55605 0.305093 9.64567e-21)
(-3.66624 0.295697 0)
(-3.7737 0.286109 -1.02451e-20)
(-3.87828 0.27625 -2.10756e-20)
(-3.97982 0.266039 1.07769e-20)
(-4.07811 0.255398 0)
(-4.1729 0.244249 0)
(-4.2639 0.232519 0)
(-4.35079 0.220138 -2.3297e-20)
(-4.43322 0.207042 -2.36134e-20)
(-4.51081 0.193174 -1.18755e-20)
(-4.58315 0.178489 0)
(-4.64983 0.162954 2.4071e-20)
(-4.71037 0.146551 0)
(-4.76428 0.129275 -2.41366e-20)
(-4.81104 0.111132 0)
(-4.85018 0.0921455 0)
(-4.88128 0.0723521 2.36879e-20)
(-4.90395 0.0518046 0)
(-4.91772 0.0305738 6.97502e-20)
(-4.92193 0.00876328 -2.24834e-20)
(-4.91633 -0.0134538 0)
(-4.90072 -0.0358459 -2.10461e-20)
(-4.87491 -0.0581912 -2.01695e-20)
(-4.83883 -0.0802451 0)
(-4.79249 -0.101757 0)
(-4.73606 -0.122478 0)
(-4.66981 -0.142171 0)
(-4.59414 -0.160614 0)
(-4.50955 -0.177613 1.27193e-20)
(-4.41667 -0.193006 2.34915e-20)
(-4.31619 -0.206667 -9.4662e-21)
(-4.20887 -0.218512 0)
(-4.09554 -0.228496 1.29964e-20)
(-3.97704 -0.236617 -5.20651e-21)
(-3.85423 -0.242908 0)
(-3.72794 -0.247439 4.20687e-23)
(-3.599 -0.250307 0)
(-3.46818 -0.251634 0)
(-3.33621 -0.25156 1.18794e-20)
(-3.20375 -0.250233 -8.80588e-21)
(-3.07141 -0.247808 2.11136e-20)
(-2.93969 -0.24444 -2.58879e-20)
(-2.80908 -0.24028 -1.59458e-20)
(-2.67994 -0.235474 0)
(-2.55261 -0.230159 -2.09635e-20)
(-2.42734 -0.224459 0)
(-2.30433 -0.218485 0)
(-2.18373 -0.21234 0)
(-2.06564 -0.206112 -3.05952e-20)
(-1.95011 -0.199877 0)
(-1.83718 -0.193694 -7.36861e-20)
(-1.72684 -0.187613 1.19939e-19)
(-1.61906 -0.181678 4.33617e-20)
(-1.51379 -0.175921 0)
(-1.41095 -0.170363 4.96953e-20)
(-1.31048 -0.165016 0)
(-1.21228 -0.159899 1.12851e-19)
(-1.11625 -0.155023 0)
(-1.02229 -0.15038 1.27261e-19)
(-0.930303 -0.145959 -2.67749e-19)
(-0.840179 -0.141778 -1.42827e-19)
(-0.751796 -0.137832 0)
(-0.665073 -0.134086 0)
(-0.579888 -0.130557 0)
(-0.49609 -0.127296 1.78565e-19)
(-0.413677 -0.124273 0)
(-0.332513 -0.121471 -1.99558e-19)
(-0.252253 -0.119014 0)
(-0.173284 -0.1169 6.67929e-19)
(-0.0953569 -0.114959 2.36657e-19)
(-0.016616 -0.113102 2.44903e-19)
(0.0607091 -0.111471 0)
(0.13626 -0.110174 0)
(0.210175 -0.108955 0)
(0.283119 -0.106759 0)
(0.354693 -0.103568 0)
(0.42488 -0.100262 4.55689e-19)
(0.493818 -0.0970196 4.5122e-19)
(0.561577 -0.09391 0)
(0.628179 -0.0909508 -2.22099e-19)
(0.693643 -0.0881393 -2.20082e-19)
(0.757993 -0.0854645 0)
(0.821247 -0.0829114 -4.31308e-19)
(0.883422 -0.080467 0)
(0.944539 -0.0781208 2.11562e-19)
(1.00462 -0.0758639 0)
(1.06367 -0.0736884 0)
(1.12172 -0.0715879 -4.14205e-19)
(1.17878 -0.0695569 0)
(1.23488 -0.0675899 2.04407e-19)
(1.29003 -0.0656834 0)
(1.34425 -0.0638352 0)
(1.39755 -0.0620434 1.99268e-19)
(1.44996 -0.0603054 1.98572e-19)
(1.50149 -0.0586183 0)
(1.55215 -0.0569807 -1.95243e-19)
(1.60198 -0.0553913 0)
(1.65097 -0.0538488 1.92704e-19)
(1.69917 -0.0523518 3.83479e-19)
(1.74658 -0.0508996 0)
(1.79321 -0.049492 0)
(1.8391 -0.0481282 0)
(1.88426 -0.0468056 0)
(1.9287 -0.0455225 3.72155e-19)
(1.97245 -0.0442786 1.10892e-18)
(2.01552 -0.0430742 0)
(2.05794 -0.0419079 0)
(2.09971 -0.0407782 0)
(2.14085 -0.0396845 -3.61289e-19)
(2.18139 -0.0386264 0)
(2.22134 -0.0376019 0)
(2.26072 -0.0366087 7.09729e-19)
(2.29954 -0.0356466 3.52608e-19)
(2.33782 -0.0347159 3.51219e-19)
(2.37557 -0.0338156 0)
(2.41281 -0.0329431 0)
(2.44955 -0.0320954 3.45512e-19)
(2.4858 -0.0312711 -3.43205e-19)
(2.52156 -0.0304724 0)
(2.55686 -0.0297011 0)
(2.5917 -0.0289527 -3.38287e-19)
(2.6261 -0.0282219 1.00927e-18)
(2.66003 -0.0275096 0)
(2.69353 -0.0268168 0)
(2.7266 -0.0261416 3.31521e-19)
(2.75923 -0.0254833 0)
(2.79144 -0.024842 6.56329e-19)
(2.82322 -0.0242165 -3.26469e-19)
(2.85458 -0.0236018 0)
(2.88551 -0.0229946 3.23776e-19)
(2.91601 -0.0223979 6.44391e-19)
(2.94608 -0.0218094 0)
(2.97571 -0.0212272 0)
(3.0049 -0.0206507 -3.18221e-19)
(3.03364 -0.0200751 0)
(3.0619 -0.0194966 6.31152e-19)
(3.08969 -0.0189095 0)
(3.11694 -0.0183089 0)
(3.14366 -0.0176847 0)
(3.16976 -0.0170275 0)
(3.19521 -0.0163202 -3.10261e-19)
(3.2199 -0.0155428 -3.09388e-19)
(3.24372 -0.0146729 0)
(3.26651 -0.0136723 0)
(3.28807 -0.0124921 0)
(3.3081 -0.011071 3.07175e-19)
(3.32622 -0.00932112 0)
(3.34183 -0.00715433 -6.14874e-19)
(3.35387 -0.00438118 6.16194e-19)
(3.36137 -0.000550737 6.17004e-19)
(3.36228 0.00517059 6.18189e-19)
(3.35289 0.0145104 6.22138e-19)
(3.33066 0.0322212 6.25501e-19)
(3.2586 0.0731246 0)
(-0.101181 0.653726 0)
(-0.218178 0.756241 0)
(-0.358066 0.795207 1.83596e-21)
(-0.50483 0.811076 -9.60063e-22)
(-0.651509 0.814821 2.04671e-22)
(-0.797659 0.811614 1.14421e-21)
(-0.943075 0.803827 -1.27788e-21)
(-1.08728 0.79274 0)
(-1.22984 0.779201 0)
(-1.37046 0.763859 0)
(-1.50892 0.747239 0)
(-1.64506 0.729771 0)
(-1.77883 0.711808 -2.34306e-20)
(-1.91019 0.693638 0)
(-2.03915 0.675483 8.91396e-21)
(-2.16576 0.657513 9.67304e-21)
(-2.29008 0.639846 0)
(-2.41218 0.622554 0)
(-2.53214 0.605672 0)
(-2.65002 0.589199 0)
(-2.76587 0.573104 1.31164e-20)
(-2.87974 0.557332 0)
(-2.99165 0.541805 -1.4333e-20)
(-3.10159 0.52643 0)
(-3.20954 0.511098 0)
(-3.31544 0.49569 0)
(-3.4192 0.480082 -3.33993e-20)
(-3.52069 0.464142 0)
(-3.61977 0.447738 1.74223e-20)
(-3.71624 0.430736 -3.61128e-20)
(-3.80987 0.413005 0)
(-3.90042 0.394418 0)
(-3.98757 0.374857 0)
(-4.07099 0.354211 1.92442e-20)
(-4.15032 0.332378 1.95053e-20)
(-4.22516 0.309269 0)
(-4.29507 0.284815 0)
(-4.35963 0.258962 -4.07455e-20)
(-4.41834 0.231684 -4.09591e-20)
(-4.4707 0.202972 4.10671e-20)
(-4.51616 0.172843 0)
(-4.55421 0.141342 0)
(-4.58441 0.108546 0)
(-4.60636 0.0745686 0)
(-4.61956 0.0395555 -3.87123e-20)
(-4.62337 0.00369863 -3.89594e-20)
(-4.61749 -0.0327494 3.78753e-20)
(-4.60162 -0.0694597 0)
(-4.57556 -0.106057 0)
(-4.53922 -0.142137 0)
(-4.49262 -0.177281 0)
(-4.43592 -0.211075 -2.97128e-20)
(-4.36941 -0.243123 0)
(-4.29351 -0.27306 0)
(-4.20874 -0.300564 -2.27292e-20)
(-4.11575 -0.325372 -1.90024e-20)
(-4.01527 -0.34728 0)
(-3.9081 -0.366158 2.88556e-20)
(-3.79509 -0.381943 -1.04275e-20)
(-3.6771 -0.39464 7.34586e-21)
(-3.555 -0.404321 0)
(-3.42966 -0.411111 0)
(-3.30189 -0.415182 0)
(-3.17247 -0.416744 0)
(-3.04212 -0.416035 -9.35488e-21)
(-2.91147 -0.413307 -2.43079e-20)
(-2.7811 -0.408821 -1.65098e-20)
(-2.65152 -0.402836 2.01683e-20)
(-2.52316 -0.395601 0)
(-2.39639 -0.387356 -5.39249e-20)
(-2.27148 -0.378326 -6.15546e-20)
(-2.14868 -0.368711 -6.92702e-20)
(-2.02815 -0.35869 7.70723e-20)
(-1.91003 -0.348423 0)
(-1.79438 -0.338051 1.4004e-19)
(-1.68126 -0.327695 0)
(-1.57065 -0.317448 -5.39943e-20)
(-1.46256 -0.307383 -5.93645e-20)
(-1.35694 -0.297567 0)
(-1.25372 -0.288058 0)
(-1.15281 -0.278883 -1.43185e-19)
(-1.05415 -0.27005 0)
(-0.957649 -0.261584 -1.61087e-19)
(-0.863179 -0.253514 0)
(-0.770639 -0.245828 1.7978e-19)
(-0.679943 -0.238494 3.80187e-19)
(-0.590965 -0.23155 0)
(-0.503568 -0.225023 0)
(-0.417721 -0.218854 0)
(-0.333274 -0.213042 2.31296e-19)
(-0.249942 -0.20768 0)
(-0.168014 -0.202747 2.54556e-19)
(-0.0871976 -0.198083 0)
(-0.00638066 -0.193609 0)
(0.0726078 -0.189462 -5.54376e-19)
(0.150034 -0.185541 0)
(0.226375 -0.181556 -2.77101e-19)
(0.30148 -0.17756 0)
(0.375196 -0.173786 -2.77415e-19)
(0.447441 -0.170121 0)
(0.518415 -0.166232 0)
(0.588233 -0.16207 0)
(0.656966 -0.157839 -8.35893e-19)
(0.724634 -0.153644 -2.79488e-19)
(0.791242 -0.14954 0)
(0.856792 -0.145549 0)
(0.921283 -0.141678 0)
(0.984725 -0.137925 0)
(1.04713 -0.134287 2.8022e-19)
(1.10851 -0.130756 -5.59165e-19)
(1.16887 -0.127327 -2.80262e-19)
(1.22824 -0.123995 5.59231e-19)
(1.28663 -0.120754 5.59171e-19)
(1.34406 -0.117601 2.801e-19)
(1.40055 -0.114533 0)
(1.45611 -0.111545 5.58663e-19)
(1.51077 -0.108637 0)
(1.56454 -0.105807 -5.58071e-19)
(1.61743 -0.103052 -2.79322e-19)
(1.66948 -0.100371 0)
(1.72069 -0.0977609 5.5684e-19)
(1.77109 -0.0952218 2.7859e-19)
(1.82069 -0.0927522 0)
(1.86952 -0.0903512 2.77223e-19)
(1.9176 -0.0880177 -8.32273e-19)
(1.96494 -0.0857515 0)
(2.01157 -0.0835518 0)
(2.05751 -0.0814167 0)
(2.10277 -0.079344 0)
(2.14738 -0.0773327 -5.50857e-19)
(2.19136 -0.0753823 -5.50584e-19)
(2.23473 -0.0734918 0)
(2.2775 -0.0716594 0)
(2.3197 -0.0698833 0)
(2.36134 -0.0681625 0)
(2.40245 -0.066495 0)
(2.44304 -0.0648787 0)
(2.48313 -0.0633125 -5.43209e-19)
(2.52275 -0.0617948 -4.54363e-22)
(2.56189 -0.0603227 0)
(2.60058 -0.058894 0)
(2.63884 -0.0575089 -5.37781e-19)
(2.67668 -0.0561657 0)
(2.71411 -0.0548588 5.35505e-19)
(2.75113 -0.0535859 5.33755e-19)
(2.78776 -0.0523498 0)
(2.824 -0.0511494 0)
(2.85988 -0.0499782 -5.29887e-19)
(2.89538 -0.0488343 -1.05625e-18)
(2.93052 -0.0477182 0)
(2.96529 -0.0466269 0)
(2.99971 -0.045558 0)
(3.03377 -0.044511 -5.22688e-19)
(3.06746 -0.0434844 5.21264e-19)
(3.1008 -0.0424754 0)
(3.13378 -0.0414802 1.0364e-18)
(3.1664 -0.0404973 5.1659e-19)
(3.19864 -0.0395236 -1.03102e-18)
(3.2305 -0.0385571 0)
(3.26197 -0.0375967 0)
(3.29305 -0.0366347 -1.02343e-18)
(3.3237 -0.0356673 -5.1075e-19)
(3.35393 -0.0346867 0)
(3.38368 -0.0336805 0)
(3.41294 -0.0326367 0)
(3.44165 -0.0315378 0)
(3.46976 -0.0303594 -1.01119e-18)
(3.49718 -0.0290705 0)
(3.52382 -0.0276327 0)
(3.54954 -0.0259896 0)
(3.57414 -0.0240641 0)
(3.59738 -0.0217533 0)
(3.61892 -0.0189095 0)
(3.63824 -0.0153177 -1.01112e-18)
(3.65464 -0.0106687 0)
(3.66684 -0.00431834 0)
(3.67362 0.00494869 -2.03848e-18)
(3.67248 0.0194481 1.02147e-18)
(3.66342 0.0444453 -1.02673e-18)
(3.62671 0.0899247 1.02052e-18)
(-0.0925343 0.954351 0)
(-0.204434 1.06023 4.6178e-21)
(-0.336092 1.09472 0)
(-0.472093 1.10684 7.99037e-22)
(-0.607096 1.10654 0)
(-0.740424 1.09848 0)
(-0.872207 1.08512 -5.85302e-21)
(-1.00228 1.06795 0)
(-1.13048 1.04798 0)
(-1.25669 1.02603 0)
(-1.38088 1.00275 0)
(-1.50305 0.978676 0)
(-1.62322 0.954238 2.94262e-20)
(-1.74147 0.929783 1.67195e-20)
(-1.85786 0.905573 -1.78418e-20)
(-1.97249 0.881796 0)
(-2.08546 0.858574 0)
(-2.19685 0.83597 0)
(-2.30676 0.813999 0)
(-2.41524 0.792632 0)
(-2.52236 0.771803 2.42136e-20)
(-2.62815 0.751416 2.52155e-20)
(-2.73262 0.73135 -2.62006e-20)
(-2.83575 0.711461 2.71685e-20)
(-2.93749 0.691591 0)
(-3.03778 0.67157 0)
(-3.13651 0.651221 2.93014e-20)
(-3.23353 0.630359 0)
(-3.32867 0.608799 0)
(-3.42172 0.586352 3.18754e-20)
(-3.51244 0.562836 3.33489e-20)
(-3.60054 0.538075 3.41152e-20)
(-3.68569 0.511902 0)
(-3.76755 0.484159 0)
(-3.8457 0.454705 -3.61408e-20)
(-3.91973 0.423416 0)
(-3.98918 0.390188 0)
(-4.05356 0.354947 3.66449e-20)
(-4.11236 0.317643 -3.89675e-20)
(-4.16502 0.278262 3.92568e-20)
(-4.21096 0.236823 0)
(-4.24962 0.193387 0)
(-4.28048 0.148062 7.64218e-20)
(-4.3031 0.101002 0)
(-4.31695 0.0524058 7.51682e-20)
(-4.32131 0.00252378 1.0935e-19)
(-4.31579 -0.0482801 -1.06385e-19)
(-4.30012 -0.0995177 6.9518e-20)
(-4.27404 -0.150641 0)
(-4.23745 -0.201065 0)
(-4.19038 -0.25019 6.03899e-20)
(-4.133 -0.297417 2.70103e-20)
(-4.06561 -0.342176 0)
(-3.98869 -0.38394 0)
(-3.90281 -0.422246 2.06071e-20)
(-3.80868 -0.456718 3.86128e-20)
(-3.7071 -0.48707 0)
(-3.59894 -0.513119 -2.6085e-20)
(-3.4851 -0.534787 2.24269e-20)
(-3.36652 -0.552094 -1.66458e-20)
(-3.24412 -0.565153 0)
(-3.11878 -0.574157 0)
(-2.99135 -0.579364 0)
(-2.86262 -0.581083 0)
(-2.7333 -0.579657 0)
(-2.60403 -0.575455 2.17618e-20)
(-2.47535 -0.568849 0)
(-2.34773 -0.560205 0)
(-2.22158 -0.549876 0)
(-2.09723 -0.538198 9.50772e-20)
(-1.97491 -0.525485 5.46554e-20)
(-1.85483 -0.512016 6.13919e-20)
(-1.73711 -0.498034 -1.35565e-19)
(-1.62185 -0.483752 7.42327e-20)
(-1.50911 -0.469364 -8.18852e-20)
(-1.39888 -0.455038 0)
(-1.29114 -0.440898 9.5806e-20)
(-1.18585 -0.427029 0)
(-1.08297 -0.41352 0)
(-0.982398 -0.40046 0)
(-0.884035 -0.38789 2.48161e-19)
(-0.787799 -0.375804 -1.31075e-19)