/*--------------------------------*- C++ -*----------------------------------*\
| =========                 |                                                 |
| \\      /  F ield         | OpenFOAM: The Open Source CFD Toolbox           |
|  \\    /   O peration     | Version:  2.2.x                                 |
|   \\  /    A nd           | Web:      www.OpenFOAM.org                      |
|    \\/     M anipulation  |                                                 |
\*---------------------------------------------------------------------------*/
FoamFile
{
    version     2.0;
    format      ascii;
    class       volScalarField;
    location    "250";
    object      epsilon;
}
// * * * * * * * * * * * * * * * * * * * * * * * * * * * * * * * * * * * * * //

dimensions      [0 2 -3 0 0 0 0];

internalField   nonuniform List<scalar> 
12225
(
1739.11
3020.47
4029.93
4714.16
5131.23
5356.52
5453.71
5469.41
5435.45
5372.6
5294.1
5208.24
5120.09
5032.7
4947.8
4866.24
4787.2
4717.12
187.444
345.36
471.802
572.477
645.139
693.321
723.221
740.589
749.849
754.143
755.595
755.592
755.019
754.431
754.225
754.971
759.021
767.7
41.8468
72.5191
98.6184
120.748
138.777
152.804
163.326
170.982
176.399
180.129
182.634
184.282
185.358
186.081
186.63
187.179
187.954
188.876
20.3603
27.9864
35.4808
42.3447
48.3977
53.5754
57.9065
61.4685
64.3574
66.6726
68.5098
69.956
71.0881
71.9729
72.6691
73.23
73.7005
74.0716
16.0564
18.2149
20.679
23.1584
25.5116
27.6658
29.5924
31.2885
32.7644
34.0374
35.1277
36.0568
36.8453
37.5131
38.0786
38.5585
38.9664
39.3014
15.0132
15.546
16.3143
17.1993
18.121
19.028
19.8902
20.6914
21.4247
22.0883
22.6842
23.216
23.6884
24.107
24.4771
24.804
25.0922
25.3408
14.7583
14.7816
14.9217
15.1506
15.4383
15.7589
16.0928
16.4261
16.7497
17.0579
17.3473
17.6162
17.8643
18.0919
18.2999
18.4892
18.661
18.8138
14.7064
14.5999
14.5498
14.5527
14.5999
14.6807
14.7849
14.9039
15.0308
15.1606
15.2895
15.4149
15.5352
15.6493
15.7567
15.857
15.9501
16.0341
14.6924
14.5448
14.4247
14.3339
14.2714
14.234
14.2176
14.2181
14.2314
14.2541
14.2835
14.3171
14.3533
14.3907
14.4282
14.4651
14.5009
14.534
14.6883
14.5275
14.3815
14.2516
14.1382
14.0409
13.9586
13.89
13.8332
13.7867
13.7488
13.7181
13.6933
13.6733
13.6572
13.6443
13.6337
13.6248
14.6872
14.5228
14.3691
14.226
14.0936
13.9719
13.8604
13.7588
13.6664
13.5825
13.5064
13.4374
13.3747
13.3178
13.2659
13.2185
13.1751
13.1356
14.6868
14.5216
14.3659
14.2193
14.0814
13.9518
13.8303
13.7163
13.6097
13.5099
13.4166
13.3294
13.2479
13.1718
13.1005
13.0338
12.9715
12.9135
14.6867
14.5211
14.365
14.2176
14.0783
13.9468
13.8226
13.7051
13.5941
13.4892
13.3901
13.2964
13.2078
13.124
13.0447
12.9698
12.8989
12.8325
14.6865
14.5209
14.3646
14.217
14.0774
13.9455
13.8206
13.7024
13.5903
13.4842
13.3835
13.2881
13.1975
13.1115
13.0298
12.9522
12.8786
12.8093
14.6864
14.5207
14.3643
14.2166
14.0769
13.9449
13.8198
13.7014
13.5892
13.4828
13.3818
13.286
13.1949
13.1085
13.0263
12.9481
12.8738
12.8039
14.6863
14.5206
14.3641
14.2163
14.0766
13.9445
13.8194
13.7009
13.5886
13.4821
13.3811
13.2852
13.1941
13.1075
13.0252
12.947
12.8726
12.8026
14.6863
14.5205
14.364
14.2162
14.0764
13.9442
13.8191
13.7006
13.5883
13.4817
13.3807
13.2848
13.1937
13.1071
13.0248
12.9466
12.8722
12.8022
14.6863
14.5205
14.364
14.2161
14.0763
13.9441
13.819
13.7005
13.5882
13.4817
13.3806
13.2847
13.1936
13.1071
13.0248
12.9466
12.8723
12.8023
14.6863
14.5205
14.364
14.2161
14.0764
13.9442
13.8191
13.7006
13.5883
13.4818
13.3808
13.285
13.1939
13.1074
13.0252
12.9471
12.8728
12.8029
14.6863
14.5205
14.3641
14.2163
14.0765
13.9444
13.8194
13.7009
13.5887
13.4824
13.3815
13.2858
13.1949
13.1086
13.0266
12.9487
12.8747
12.8051
14.6864
14.5206
14.3642
14.2165
14.077
13.9451
13.8203
13.7023
13.5906
13.4849
13.3847
13.2899
13.2
13.1148
13.0341
12.9575
12.8849
12.8167
14.6864
14.5209
14.3648
14.2178
14.0792
13.9488
13.8261
13.7108
13.6024
13.5005
13.4048
13.3149
13.2304
13.151
13.0764
13.0061
12.9401
12.8787
14.6868
14.5224
14.369
14.2266
14.0951
13.9743
13.8638
13.763
13.6712
13.5878
13.5119
13.4429
13.3801
13.3228
13.2705
13.2225
13.1786
13.1387
14.6896
14.5346
14.3997
14.286
14.1931
14.1197
14.0634
14.0218
13.9926
13.9735
13.9624
13.9576
13.9577
13.9613
13.9677
13.9758
13.9852
13.9956
14.712
14.6197
14.5881
14.6109
14.6777
14.7775
14.9001
15.0373
15.1823
15.3304
15.4777
15.6217
15.7605
15.893
16.0182
16.1359
16.2458
16.348
14.8713
15.1218
15.5428
16.0675
16.6464
17.2443
17.8379
18.4129
18.9603
19.4753
19.9553
20.3995
20.8081
21.1824
21.5237
21.8339
22.115
22.3687
15.8757
17.7051
19.786
21.8934
23.9352
25.8644
27.6582
29.3081
30.8127
32.175
33.4007
34.4975
35.4741
36.3399
37.1042
37.7761
38.3641
38.8762
22.1653
31.0982
39.309
46.8789
53.8654
60.2393
65.9889
71.1209
75.6541
79.6183
83.0528
86.0032
88.5182
90.6463
92.4337
93.922
95.1447
96.1214
68.0162
114.883
154.745
191.722
225.934
256.721
283.776
307.075
326.779
343.18
356.641
367.555
376.303
383.239
388.673
392.864
395.996
398.073
723.142
1065.45
1375.77
1655.27
1913.19
2142.6
2340.2
2505.65
2640.63
2747.98
2831.1
2893.48
2938.46
2969.08
2988
2997.52
2999.6
2995.73
5.7725
5.23562
6.73834
8.08912
9.86199
12.3029
16.433
21.4482
27.3845
34.1517
41.7123
50.0006
58.9525
68.5326
78.7124
89.4664
100.77
112.601
124.936
137.754
151.033
164.754
178.894
193.434
208.354
223.634
239.255
255.197
271.441
287.969
304.764
321.807
339.082
356.572
374.262
392.137
410.182
428.386
446.735
465.22
483.83
502.557
521.396
540.341
559.389
578.538
597.79
617.147
636.614
656.2
675.915
695.771
715.784
735.974
756.36
776.968
797.825
818.962
840.412
862.211
884.398
907.012
930.098
953.699
977.861
1002.63
1028.05
1054.17
1081.03
1108.68
1137.15
1166.49
1196.73
1227.89
1260.01
1293.09
1327.17
1362.25
1398.37
1435.54
1473.82
1513.32
1554.19
1596.8
1639.82
1682.87
1725.63
1767.73
1808.71
1848.06
1885.19
1919.46
1950.16
1976.54
1997.82
2013.23
2022.01
2023.47
2017.05
2002.29
1978.97
1947.04
1906.71
1858.44
1802.89
1740.96
1673.68
1602.2
1527.71
1451.41
1374.41
1297.73
1222.26
1148.76
1077.89
1010
945.59
885.537
830.49
782.932
743.385
707.146
673.484
642.147
612.96
585.768
560.426
536.803
514.772
494.212
475.004
457.042
440.227
424.469
409.685
395.799
382.74
370.445
358.856
347.92
337.586
327.811
318.553
309.775
301.443
293.524
285.993
278.822
271.987
265.468
259.245
253.3
247.617
242.18
236.976
231.993
227.219
222.645
218.259
214.055
210.023
206.156
202.447
198.888
195.471
192.192
189.042
186.012
183.095
180.281
177.556
174.907
172.312
169.743
167.155
164.483
161.716
158.831
155.563
150.725
17.4977
9.94803
10.1112
11.7131
14.0666
17.1744
21.084
25.6742
30.78
36.2678
42.0511
48.0698
54.2811
60.6558
67.1725
73.8151
80.5718
87.4332
94.3928
101.445
108.586
115.813
123.123
130.513
137.98
145.524
153.141
160.828
168.583
176.403
184.285
192.225
200.221
208.269
216.365
224.506
232.689
240.911
249.169
257.46
265.782
274.132
282.51
290.915
299.345
307.801
316.284
324.796
333.338
341.915
350.53
359.188
367.895
376.658
385.485
394.384
403.366
412.441
421.619
430.914
440.338
449.905
459.627
469.518
479.594
489.866
500.349
511.056
521.997
533.185
544.628
556.335
568.313
580.567
593.099
605.912
619.006
632.38
646.035
659.972
674.196
688.719
703.559
718.859
734.36
749.741
764.866
779.599
793.786
807.256
819.815
831.253
841.341
849.837
856.491
861.05
863.269
862.921
859.809
853.779
844.734
832.644
817.553
799.584
778.938
755.886
730.762
703.938
675.814
646.795
617.274
587.614
558.137
529.116
500.787
473.265
446.693
421.242
398.036
376.964
358.082
340.64
324.389
309.214
295.034
281.783
269.396
257.814
246.98
236.84
227.341
218.436
210.08
202.231
194.851
187.905
181.36
175.186
169.356
163.844
158.628
153.686
148.998
144.547
140.316
136.29
132.456
128.801
125.314
121.983
118.799
115.755
112.84
110.049
107.374
104.809
102.348
99.9866
97.7197
95.5426
93.4514
91.4425
89.5119
87.6564
85.873
84.1584
82.5098
80.9245
79.3995
77.932
76.5196
75.1592
73.8482
72.5842
71.3657
70.1957
69.1366
68.3241
68.0614
69.6112
33.6816
17.7882
16.6426
17.8785
20.2673
23.5318
27.5363
32.127
37.1395
42.4394
47.9335
53.5615
59.2854
65.0813
70.935
76.8382
82.7868
88.7793
94.8163
100.899
107.031
113.212
119.447
125.735
132.079
138.48
144.936
151.448
158.015
164.635
171.305
178.024
184.788
191.595
198.441
205.322
212.234
219.175
226.14
233.127
240.131
247.149
254.179
261.217
268.262
275.311
282.364
289.418
296.474
303.532
310.591
317.654
324.721
331.796
338.882
345.981
353.098
360.239
367.409
374.613
381.859
389.153
396.504
403.92
411.409
418.979
426.64
434.401
442.271
450.258
458.373
466.623
475.016
483.562
492.268
501.142
510.189
519.417
528.83
538.435
548.238
558.242
568.452
578.853
589.31
599.734
610.056
620.2
630.077
639.583
648.595
656.976
664.569
671.199
676.677
680.804
683.377
684.193
683.065
679.83
674.362
666.582
656.467
644.06
629.467
612.858
594.458
574.537
553.392
531.335
508.675
485.702
462.676
439.81
417.329
395.163
374.049
354.041
335.402
318.129
302.167
287.305
273.42
260.434
248.287
236.926
226.298
216.353
207.043
198.323
190.149
182.482
175.282
168.515
162.148
156.152
150.498
145.162
140.119
135.348
130.829
126.546
122.48
118.616
114.942
111.443
108.109
104.929
101.893
98.9917
96.2172
93.5619
91.019
88.5821
86.2454
84.0035
81.8517
79.7853
77.8002
75.8925
74.0588
72.2957
70.6001
68.9691
67.4001
65.8904
64.4377
63.0398
61.6946
60.4002
59.1551
57.9579
56.8081
55.7064
54.6558
53.666
52.7773
52.09
51.8092
52.5088
51.2107
25.6142
22.9097
23.7699
26.0571
29.2741
33.2018
37.6705
42.5287
47.6538
52.9573
58.3803
63.8863
69.4537
75.071
80.733
86.4389
92.1901
97.9899
103.842
109.75
115.719
121.75
127.847
134.012
140.244
146.544
152.912
159.344
165.84
172.395
179.007
185.672
192.384
199.139
205.932
212.757
219.61
226.485
233.376
240.279
247.186
254.095
260.999
267.894
274.776
281.639
288.482
295.299
302.089
308.848
315.575
322.267
328.925
335.547
342.133
348.685
355.203
361.689
368.147
374.579
380.989
387.383
393.767
400.146
406.528
412.92
419.333
425.775
432.258
438.792
445.389
452.064
458.829
465.699
472.689
479.813
487.087
494.526
502.146
509.959
517.975
526.214
534.626
543.173
551.823
560.541
569.284
577.993
586.596
594.999
603.086
610.721
617.741
623.96
629.174
633.161
635.693
636.546
635.511
632.411
627.112
619.537
609.675
597.585
583.396
567.299
549.54
530.398
510.18
489.183
467.707
446.016
424.286
402.927
382.223
362.41
343.594
325.883
309.288
293.765
279.231
265.618
252.868
240.932
229.762
219.307
209.522
200.36
191.776
183.729
176.178
169.087
162.422
156.149
150.24
144.667
139.406
134.433
129.728
125.27
121.043
117.03
113.216
109.588
106.132
102.839
99.6966
96.696
93.8283
91.0854
88.46
85.9454
83.5352
81.2239
79.0061
76.877
74.8322
72.8676
70.9793
69.1639
67.4181
65.7387
64.123
62.5683
61.0721
59.6321
58.2461
56.9124
55.6291
54.395
53.2093
52.0719
50.9843
49.9508
48.9818
48.1062
47.3966
46.9796
47.1145
70.9461
32.9307
28.4058
28.7729
30.8626
33.94
37.7146
42.0048
46.6704
51.6021
56.72
61.9697
67.317
72.7417
78.2338
83.7893
89.4087
95.0944
100.851
106.682
112.592
118.585
124.664
130.831
137.088
143.434
149.869
156.391
162.997
169.683
176.446
183.279
190.178
197.136
204.147
211.203
218.298
225.424
232.573
239.738
246.911
254.084
261.251
268.402
275.532
282.632
289.697
296.719
303.692
310.61
317.468
324.26
330.981
337.627
344.195
350.682
357.083
363.399
369.627
375.768
381.822
387.79
393.676
399.483
405.216
410.881
416.487
422.041
427.556
433.044
438.518
443.995
449.493
455.031
460.63
466.313
472.104
478.029
484.115
490.389
496.879
503.608
510.592
517.822
525.298
533.02
540.979
549.159
557.527
566.032
574.601
583.134
591.502
599.544
607.065
613.839
619.612
624.114
627.065
628.198
627.27
624.084
618.504
610.471
600.004
587.204
572.251
555.387
536.898
517.111
496.332
474.905
453.108
431.488
410.276
389.692
369.917
351.065
333.211
316.375
300.535
285.65
271.677
258.571
246.289
234.786
224.014
213.927
204.478
195.623
187.319
179.526
172.205
165.323
158.845
152.741
146.984
141.548
136.409
131.545
126.937
122.567
118.417
114.472
110.719
107.145
103.737
100.486
97.3812
94.4137
91.5752
88.8582
86.2557
83.7613
81.3691
79.0737
76.8701
74.7538
72.7204
70.766
68.8871
67.0801
65.3419
63.6695
62.0603
60.5116
59.0211
57.5866
56.2063
54.8785
53.6021
52.3762
51.2014
50.0794
49.0148
48.0179
47.1112
46.3462
45.8032
45.6057
88.4912
39.1177
32.7994
32.6251
34.4695
37.3697
40.966
45.0628
49.527
54.2607
59.1934
64.2767
69.4795
74.7838
80.1807
85.6672
91.2443
96.9152
102.684
108.555
114.534
120.623
126.825
133.143
139.576
146.125
152.788
159.561
166.441
173.424
180.503
187.672
194.924
202.251
209.645
217.097
224.597
232.136
239.705
247.293
254.891
262.488
270.075
277.641
285.176
292.671
300.116
307.501
314.817
322.056
329.207
336.264
343.218
350.061
356.786
363.387
369.858
376.194
382.391
388.445
394.353
400.116
405.732
411.203
416.533
421.726
426.79
431.733
436.566
441.303
445.961
450.557
455.114
459.656
464.211
468.809
473.483
478.269
483.206
488.334
493.695
499.33
505.264
511.522
518.132
525.121
532.507
540.301
548.495
557.065
565.96
575.099
584.365
593.599
602.599
611.115
618.858
625.505
630.712
634.137
635.459
634.404
630.767
624.433
615.379
603.684
589.519
573.136
554.829
534.993
513.873
492.173
470.177
448.261
426.701
405.721
385.494
366.14
347.734
330.306
313.853
298.352
283.774
270.083
257.238
245.195
233.91
223.334
213.422
204.128
195.409
187.223
179.53
172.295
165.483
159.063
153.005
147.284
141.874
136.753
131.899
127.295
122.923
118.766
114.811
111.043
107.451
104.023
100.75
97.6204
94.6271
91.7617
89.0169
86.3861
83.863
81.4421
79.1179
76.8858
74.7412
72.6799
70.6982
68.7924
66.9592
65.1955
63.4984
61.8653
60.2936
58.7812
57.3262
55.9268
54.582
53.2913
52.055
50.8753
49.7569
48.7092
47.7506
46.9169
46.2597
45.8407
103.142
43.9991
36.0252
35.2988
36.8684
39.5691
42.9763
46.8777
51.1422
55.6799
60.4283
65.3447
70.4021
75.5849
80.8854
86.3018
91.8356
97.4905
103.271
109.182
115.228
121.413
127.739
134.208
140.821
147.576
154.471
161.503
168.667
175.958
183.369
190.892
198.519
206.24
214.047
221.927
229.871
237.867
245.903
253.967
262.048
270.133
278.209
286.265
294.286
302.262
310.18
318.027
325.792
333.461
341.024
348.469
355.784
362.959
369.984
376.847
383.541
390.056
396.384
402.519
408.455
414.187
419.713
425.031
430.141
435.047
439.753
444.266
448.598
452.76
456.771
460.65
464.42
468.111
471.754
475.385
479.045
482.778
486.634
490.666
494.928
499.477
504.358
509.62
515.316
521.499
528.216
535.506
543.395
551.888
560.967
570.577
580.624
590.964
601.393
611.648
621.406
630.288
637.881
643.753
647.486
648.715
647.145
642.595
634.993
624.392
610.954
594.975
576.68
556.761
535.572
513.613
491.275
468.92
446.847
425.293
404.444
384.43
365.335
347.202
330.041
313.842
298.584
284.236
270.758
258.111
246.247
235.12
224.683
214.89
205.696
197.059
188.938
181.296
174.097
167.309
160.902
154.848
149.121
143.698
138.557
133.678
129.044
124.637
120.442
116.446
112.635
108.998
105.523
102.202
99.0241
95.9819
93.0675
90.2739
87.5944
85.0233
82.5548
80.1839
77.9059
75.7163
73.6112
71.5867
69.6393
67.7658
65.963
64.2283
62.5589
60.9527
59.4076
57.922
56.4948
55.1255
53.8147
52.5645
51.3796
50.2685
49.2462
48.337
47.5738
46.9882
114.304
47.5455
38.1529
36.8962
38.1725
40.6534
43.8591
47.5597
51.6225
55.9623
60.522
65.264
70.1647
75.2108
80.3964
85.7207
91.186
96.7966
102.558
108.474
114.551
120.793
127.202
133.78
140.528
147.445
154.529
161.775
169.18
176.736
184.438
192.275
200.241
208.323
216.511
224.794
233.159
241.594
250.085
258.619
267.181
275.758
284.335
292.898
301.431
309.921
318.351
326.708
334.975
343.14
351.185
359.098
366.864
374.467
381.896
389.135
396.172
402.995
409.592
415.953
422.067
427.927
433.526
438.858
443.922
448.714
453.239
457.5
461.506
465.267
468.799
472.122
475.259
478.24
481.099
483.875
486.613
489.365
492.187
495.142
498.296
501.72
505.475
509.631
514.265
519.453
525.272
531.792
539.076
547.167
556.087
565.822
576.316
587.455
599.056
610.856
622.509
633.591
643.612
652.039
658.342
662.038
662.721
660.123
654.117
644.728
632.075
616.636
598.769
579.005
557.814
535.68
513.035
490.261
467.681
445.556
424.087
403.419
383.649
364.831
346.987
330.117
314.205
299.222
285.133
271.896
259.467
247.798
236.843
226.554
216.886
207.797
199.244
191.189
183.597
176.434
169.668
163.27
157.216
151.479
146.039
140.874
135.965
131.295
126.849
122.612
118.569
114.71
111.023
107.497
104.124
100.893
97.7973
94.8296
91.9827
89.2504
86.6269
84.1068
81.6852
79.3574
77.1192
74.9665
72.8957
70.9033
68.9861
67.1412
65.366
63.6579
62.015
60.4357
58.9188
57.4639
56.0716
54.7442
53.4858
52.3042
51.2113
50.2237
49.3602
48.6384
121.79
49.815
39.3087
37.5736
38.5509
40.7944
43.7822
47.2697
51.1211
55.253
59.612
64.1637
68.8874
73.7719
78.8126
84.0098
89.3667
94.8883
100.58
106.449
112.498
118.735
125.161
131.779
138.591
145.595
152.79
160.173
167.739
175.482
183.394
191.468
199.695
208.062
216.56
225.176
233.896
242.708
251.596
260.547
269.544
278.574
287.618
296.662
305.688
314.68
323.621
332.494
341.281
349.965
358.529
366.955
375.226
383.325
391.234
398.936
406.415
413.655
420.64
427.355
433.787
439.924
445.753
451.266
456.456
461.317
465.847
470.047
473.92
477.475
480.723
483.682
486.373
488.824
491.067
493.143
495.097
496.983
498.862
500.801
502.875
505.165
507.744
510.698
514.12
518.107
522.764
528.192
534.49
541.745
550.028
559.379
569.796
581.22
593.514
606.443
619.662
632.719
645.062
656.042
664.999
671.316
674.433
673.975
669.745
661.812
650.374
635.822
618.595
599.21
578.184
556.027
533.207
510.138
487.17
464.586
442.608
421.396
401.061
381.667
363.246
345.806
329.334
313.805
299.184
285.433
272.506
260.356
248.936
238.2
228.101
218.597
209.646
201.208
193.248
185.73
178.624
171.901
165.533
159.495
153.766
148.323
143.147
138.221
133.528
129.054
124.783
120.705
116.807
113.078
109.509
106.09
102.813
99.6711
96.6561
93.7617
90.9819
88.3112
85.7443
83.2765
80.9032
78.6203
76.4239
74.3104
72.2765
70.3192
68.4356
66.6234
64.8804
63.2049
61.5959
60.0529
58.5767
57.1691
55.8343
54.5787
53.4119
52.346
51.3868
50.5477
125.685
50.919
39.6418
37.5046
38.1911
40.1848
42.9377
46.1953
49.8192
53.7266
57.8659
62.2049
66.7248
71.4157
76.2743
81.3018
86.502
91.8805
97.4438
103.198
109.151
115.306
121.668
128.241
135.026
142.024
149.234
156.654
164.278
172.103
180.122
188.327
196.708
205.255
213.958
222.804
231.78
240.872
250.066
259.346
268.696
278.101
287.542
297.004
306.467
315.915
325.328
334.687
343.974
353.17
362.253
371.206
380.007
388.636
397.074
405.3
413.295
421.038
428.51
435.693
442.568
449.12
455.331
461.188
466.68
471.795
476.527
480.871
484.826
488.396
491.588
494.414
496.891
499.042
500.898
502.494
503.873
505.088
506.198
507.271
508.385
509.623
511.065
512.805
514.944
517.594
520.878
524.923
529.86
535.821
542.925
551.276
560.942
571.943
584.221
597.609
611.798
626.348
640.679
654.025
665.575
674.574
680.26
682.167
680.065
673.959
664.042
650.681
634.346
615.577
594.933
572.96
550.164
526.994
503.828
480.974
458.671
437.097
416.372
396.573
377.739
359.883
342.996
327.056
312.031
297.881
284.562
272.029
260.235
249.133
238.678
228.826
219.537
210.771
202.493
194.667
187.262
180.249
173.601
167.293
161.302
155.606
150.186
145.024
140.103
135.409
130.926
126.643
122.547
118.627
114.873
111.275
107.826
104.518
101.342
98.292
95.3622
92.5465
89.8395
87.2362
84.7322
82.3229
80.0044
77.7731
75.6254
73.5583
71.5689
69.6546
67.8133
66.0434
64.3437
62.7139
61.1544
59.6673
58.2559
56.926
55.6847
54.5407
53.4923
52.5497
126.248
50.9989
39.3063
36.8606
37.2778
39.0177
41.5221
44.5329
47.9107
51.5735
55.4707
59.5713
63.8574
68.3202
72.957
77.7693
82.7616
87.9399
93.3112
98.8829
104.662
110.654
116.866
123.301
129.962
136.851
143.968
151.312
158.88
166.669
174.672
182.884
191.295
199.897
208.68
217.632
226.74
235.992
245.372
254.867
264.459
274.134
283.873
293.659
303.474
313.298
323.113
332.899
342.635
352.3
361.874
371.333
380.658
389.824
398.81
407.593
416.149
424.456
432.491
440.232
447.656
454.743
461.473
467.826
473.786
479.339
484.47
489.171
493.435
497.259
500.646
503.6
506.135
508.267
510.019
511.422
512.514
513.339
513.953
514.419
514.81
515.207
515.687
516.341
517.269
518.586
520.422
522.917
526.224
530.503
535.919
542.636
550.798
560.522
571.864
584.776
599.026
614.251
629.918
645.181
659.037
670.57
678.929
683.463
683.798
679.839
671.74
659.855
644.678
626.781
606.766
585.223
562.696
539.667
516.544
493.658
471.267
449.559
428.668
408.678
389.635
371.556
354.437
338.256
322.984
308.583
295.009
282.219
270.165
258.803
248.089
237.98
228.435
219.417
210.889
202.817
195.172
187.923
181.043
174.509
168.298
162.387
156.757
151.392
146.273
141.386
136.716
132.252
127.979
123.888
119.968
116.21
112.605
109.145
105.823
102.631
99.5635
96.6143
93.778
91.0495
88.4241
85.8973
83.465
81.1236
78.8694
76.6992
74.6102
72.5998
70.6658
68.8065
67.0209
65.3084
63.6696
62.106
60.6209
59.2187
57.9048
56.6851
55.5545
54.5197
123.844
50.2062
38.4494
35.8002
35.9823
37.4743
39.7236
42.4748
45.5906
48.9901
52.6237
56.4613
60.4854
64.6875
69.065
73.6197
78.356
83.2799
88.3989
93.7208
99.2536
105.004
110.979
117.184
123.623
130.3
137.215
144.37
151.763
159.392
167.253
175.342
183.652
192.174
200.901
209.823
218.927
228.203
237.637
247.214
256.921
266.741
276.658
286.653
296.711
306.81
316.932
327.057
337.164
347.231
357.236
367.157
376.969
386.649
396.172
405.514
414.649
423.551
432.196
440.557
448.609
456.328
463.689
470.669
477.247
483.403
489.119
494.38
499.174
503.493
507.332
510.691
513.575
515.995
517.968
519.514
520.665
521.457
521.936
522.156
522.18
522.079
521.92
521.78
521.747
521.927
522.439
523.419
525.021
527.414
530.786
535.34
541.285
548.83
558.166
569.449
582.544
597.239
613.069
629.276
644.855
658.696
669.716
677.021
680.023
678.482
672.479
662.35
648.603
631.851
612.737
591.896
569.912
547.302
524.499
501.856
479.644
458.067
437.264
417.327
398.308
380.225
363.08
346.852
331.514
317.029
303.356
290.453
278.274
266.777
255.918
245.657
235.954
226.773
218.078
209.838
202.022
194.602
187.553
180.849
174.468
168.39
162.596
157.068
151.79
146.746
141.923
137.308
132.888
128.654
124.594
120.699
116.96
113.37
109.921
106.606
103.418
100.352
97.4015
94.5624
91.8294
89.1981
86.6644
84.2244
81.8746
79.6117
77.4329
75.3355
73.3174
71.3768
69.5126
67.7243
66.0124
64.3781
62.8241
61.3539
59.9717
58.681
57.4758
56.3586
118.909
48.7064
37.2159
34.4717
34.462
35.7222
37.7191
40.2062
43.0507
46.1744
49.529
53.0849
56.8248
60.7402
64.8287
69.0927
73.5358
78.1607
82.9762
87.9913
93.2142
98.6532
104.316
110.208
116.336
122.705
129.318
136.177
143.284
150.637
158.236
166.076
174.155
182.467
191.004
199.759
208.723
217.885
227.235
236.759
246.445
256.278
266.242
276.322
286.5
296.758
307.078
317.438
327.82
338.2
348.557
358.867
369.107
379.251
389.274
399.15
408.852
418.351
427.622
436.635
445.363
453.777
461.851
469.558
476.872
483.769
490.227
496.226
501.75
506.784
511.318
515.346
518.868
521.885
524.408
526.452
528.037
529.19
529.946
530.349
530.45
530.299
529.946
529.449
528.874
528.304
527.833
527.573
527.653
528.223
529.46
531.568
534.786
539.384
545.651
553.865
564.202
576.704
591.16
607.013
623.321
638.851
652.251
662.298
668.101
669.201
665.557
657.459
645.427
630.105
612.183
592.34
571.198
549.307
527.124
505.02
483.28
462.116
441.675
422.053
403.305
385.454
368.503
352.435
337.225
322.837
309.233
296.373
284.215
272.717
261.839
251.542
241.789
232.545
223.777
215.454
207.548
200.032
192.88
186.07
179.581
173.392
167.485
161.843
156.451
151.293
146.356
141.628
137.096
132.751
128.581
124.579
120.734
117.04
113.488
110.072
106.786
103.623
100.579
97.6474
94.8243
92.105
89.4854
86.9617
84.5304
82.1881
79.932
77.7595
75.6684
73.657
71.7241
69.8692
68.0926
66.3953
64.7794
63.2478
61.8031
60.4477
59.175
57.9858
112.634
46.9617
35.8455
33.0551
32.8833
33.93
35.6853
37.9138
40.4887
43.3348
46.4055
49.6717
53.1157
56.7285
60.5066
64.4508
68.5645
72.853
77.324
81.9858
86.8473
91.9172
97.2038
102.715
108.458
114.439
120.664
127.136
133.859
140.835
148.065
155.548
163.282
171.264
179.491
187.957
196.656
205.578
214.717
224.06
233.598
243.317
253.205
263.246
273.425
283.726
294.13
304.619
315.173
325.771
336.39
347.009
357.602
368.146
378.613
388.978
399.211
409.286
419.172
428.84
438.261
447.404
456.239
464.738
472.871
480.612
487.934
494.814
501.23
507.164
512.6
517.529
521.942
525.838
529.219
532.092
534.471
536.373
537.822
538.852
539.5
539.789
539.75
539.415
538.825
538.029
537.086
536.065
535.048
534.134
533.444
533.135
533.413
534.545
536.874
540.806
546.78
555.195
566.271
579.864
595.306
611.384
626.502
639.028
647.642
651.55
650.509
644.725
634.703
621.116
604.696
586.163
566.181
545.325
524.077
502.823
481.857
461.399
441.6
422.56
404.338
386.96
370.429
354.733
339.847
325.742
312.38
299.725
287.737
276.379
265.612
255.401
245.711
236.51
227.767
219.454
211.543
204.01
196.831
189.986
183.453
177.214
171.251
165.55
160.093
154.869
149.862
145.063
140.459
136.04
131.796
127.718
123.799
120.03
116.403
112.914
109.554
106.319
103.203
100.2
97.3076
94.5197
91.8326
89.2427
86.7463
84.3404
82.0219
79.7885
77.6378
75.5681
73.5784
71.668
69.8369
68.0861
66.417
64.8319
63.3325
61.9201
60.5876
59.3372
105.079
44.916
34.3859
31.6271
31.3357
32.1962
33.7286
35.7112
38.0247
40.5978
43.386
46.3606
49.5039
52.806
56.2625
59.8733
63.6413
67.5718
71.672
75.9502
80.4152
85.0764
89.9431
95.0241
100.328
105.863
111.636
117.654
123.922
130.444
137.224
144.264
151.566
159.128
166.95
175.029
183.361
191.942
200.765
209.823
219.106
228.606
238.311
248.208
258.284
268.524
278.912
289.431
300.062
310.786
321.582
332.427
343.298
354.171
365.019
375.817
386.536
397.148
407.623
417.93
428.039
437.92
447.539
456.868
465.874
474.528
482.803
490.67
498.106
505.089
511.599
517.621
523.145
528.161
532.668
536.667
540.164
543.167
545.693
547.765
549.401
550.6
551.367
551.712
551.645
551.18
550.335
549.127
547.575
545.706
543.557
541.192
538.721
536.33
534.316
533.126
533.369
535.798
541.181
550.043
562.329
577.148
592.809
607.223
618.487
625.3
627.093
623.914
616.219
604.693
590.104
573.213
554.719
535.226
515.233
495.141
475.252
455.79
436.912
418.719
401.272
384.601
368.712
353.595
339.23
325.589
312.64
300.349
288.682
277.603
267.078
257.075
247.563
238.512
229.895
221.685
213.858
206.391
199.264
192.455
185.947
179.722
173.765
168.06
162.594
157.353
152.325
147.499
142.865
138.412
134.132
130.016
126.055
122.244
118.574
115.039
111.634
108.352
105.189
102.14
99.1999
96.3648
93.6308
90.9941
88.4513
85.9994
83.6353
81.3568
79.1616
77.048
75.0148
73.0614
71.1877
69.3943
67.6823
66.0533
64.5083
63.0479
61.6648
60.363
96.3148
42.4721
32.7891
30.1776
29.8359
30.5597
31.9078
33.6764
35.755
38.0777
40.6022
43.3011
46.1567
49.1586
52.3016
55.5848
59.0106
62.5838
66.3111
70.2006
74.2616
78.5038
82.9372
87.5718
92.4177
97.4843
102.781
108.316
114.097
120.13
126.423
132.98
139.804
146.898
154.265
161.904
169.815
177.995
186.442
195.151
204.115
213.327
222.78
232.463
242.364
252.471
262.771
273.247
283.884
294.662
305.563
316.565
327.647
338.785
349.955
361.13
372.283
383.386
394.41
405.324
416.099
426.703
437.105
447.272
457.173
466.778
476.056
484.98
493.522
501.658
509.366
516.628
523.429
529.758
535.606
540.97
545.848
550.244
554.166
557.626
560.618
563.113
565.095
566.551
567.462
567.807
567.558
566.68
565.125
562.837
559.758
555.835
551.047
545.437
539.167
532.585
526.314
521.308
518.834
520.247
526.501
537.535
551.926
567.213
580.738
590.464
595.307
595.038
590.01
580.893
568.483
553.576
536.904
519.097
500.675
482.048
463.527
445.34
427.645
410.549
394.113
378.371
363.331
348.989
335.328
322.324
309.95
298.176
286.972
276.307
266.151
256.476
247.254
238.459
230.066
222.053
214.398
207.081
200.082
193.384
186.971
180.826
174.936
169.287
163.865
158.66
153.66
148.855
144.235
139.791
135.514
131.397
127.432
123.612
119.93
116.382
112.96
109.66
106.477
103.406
100.443
97.584
94.8249
92.1625
89.5933
87.1143
84.7229
82.4165
80.1931
78.0511
75.9891
74.0066
72.1032
70.2793
68.5358
66.8736
65.2933
63.795
62.3713
61.027
86.7172
39.5985
31.0078
28.6808
28.3846
29.0486
30.2793
31.8937
33.7924
35.9151
38.2231
40.6904
43.3001
46.0417
48.9099
51.9033
55.0239
58.276
61.6664
65.203
68.8954
72.7537
76.7888
81.0116
85.4334
90.0652
94.9177
100.001
105.326
110.9
116.733
122.831
129.201
135.849
142.779
149.993
157.494
165.283
173.359
181.72
190.363
199.282
208.473
217.927
227.636
237.589
247.774
258.178
268.786
279.582
290.548
301.665
312.912
324.268
335.709
347.211
358.748
370.293
381.819
393.297
404.697
415.989
427.143
438.128
448.912
459.465
469.758
479.761
489.446
498.788
507.764
516.352
524.536
532.301
539.634
546.527
552.973
558.967
564.511
569.598
574.187
578.225
581.679
584.511
586.673
588.108
588.74
588.477
587.205
584.787
581.07
575.891
569.099
560.587
550.35
538.566
525.712
512.714
501.071
492.823
490.14
494.382
505.076
519.727
534.852
547.388
555.469
558.426
556.421
550.072
540.188
527.599
513.069
497.256
480.696
463.813
446.924
430.262
413.988
398.212
382.998
368.383
354.38
340.989
328.198
315.987
304.336
293.219
282.61
272.484
262.815
253.579
244.753
236.314
228.242
220.516
213.119
206.032
199.239
192.724
186.474
180.475
174.714
169.178
163.858
158.741
153.819
149.082
144.521
140.129
135.896
131.817
127.883
124.09
120.431
116.9
113.492
110.203
107.027
103.961
101
98.141
95.38
92.7137
90.139
87.653
85.2532
82.9371
80.7029
78.5487
76.4735
74.4764
72.5572
70.7159
68.9531
67.2694
65.665
64.1395
62.6862
61.3099
76.7082
36.3275
29.0136
27.1193
26.9965
27.7183
28.9423
30.5084
32.3287
34.3496
36.5361
38.8648
41.3204
43.8935
46.5792
49.3766
52.2877
55.3172
58.4717
61.7595
65.1905
68.7752
72.5252
76.4522
80.5685
84.8862
89.4174
94.1738
99.1668
104.407
109.905
115.669
121.708
128.029
134.64
141.544
148.746
156.249
164.053
172.161
180.569
189.276
198.277
207.566
217.138
226.982
237.09
247.449
258.046
268.868
279.897
291.118
302.51
314.055
325.731
337.516
349.386
361.317
373.284
385.261
397.22
409.135
420.976
432.716
444.326
455.775
467.037
478.082
488.883
499.415
509.654
519.577
529.166
538.402
547.268
555.752
563.838
571.517
578.777
585.57
591.802
597.427
602.389
606.621
610.037
612.535
613.986
614.235
613.097
610.36
605.783