/*--------------------------------*- C++ -*----------------------------------*\
| =========                 |                                                 |
| \\      /  F ield         | OpenFOAM: The Open Source CFD Toolbox           |
|  \\    /   O peration     | Version:  2.2.x                                 |
|   \\  /    A nd           | Web:      www.OpenFOAM.org                      |
|    \\/     M anipulation  |                                                 |
\*---------------------------------------------------------------------------*/
FoamFile
{
    version     2.0;
    format      ascii;
    class       volScalarField;
    location    "250";
    object      k;
}
// * * * * * * * * * * * * * * * * * * * * * * * * * * * * * * * * * * * * * //

dimensions      [0 2 -2 0 0 0 0];

internalField   nonuniform List<scalar> 
12225
(
0.773253
1.11726
1.35405
1.50328
1.59069
1.63692
1.65666
1.65985
1.65297
1.64021
1.6242
1.6066
1.58843
1.57031
1.55261
1.53552
1.51886
1.50402
0.492805
0.515906
0.520079
0.519366
0.516011
0.511126
0.505674
0.500338
0.49554
0.491511
0.488356
0.486098
0.484709
0.484141
0.484349
0.485377
0.487862
0.491867
0.41201
0.424082
0.421842
0.414151
0.404207
0.393391
0.38244
0.371784
0.361684
0.352289
0.34368
0.335884
0.328898
0.322699
0.317255
0.312539
0.308528
0.305055
0.381867
0.385947
0.386336
0.383938
0.379745
0.374461
0.368552
0.362332
0.356015
0.349745
0.343623
0.337715
0.332067
0.326703
0.32164
0.316882
0.312422
0.308257
0.375243
0.375519
0.374932
0.373409
0.371099
0.368193
0.364866
0.36126
0.357487
0.353631
0.349756
0.34591
0.342129
0.33844
0.334859
0.3314
0.32807
0.324891
0.373469
0.372204
0.370883
0.369326
0.367497
0.365419
0.363139
0.360709
0.358173
0.355573
0.352942
0.350306
0.347687
0.345102
0.342564
0.340084
0.337669
0.335345
0.372983
0.371101
0.369347
0.367622
0.365869
0.364064
0.362203
0.360294
0.358348
0.35638
0.354403
0.352429
0.35047
0.348533
0.346628
0.344759
0.342932
0.341171
0.372867
0.370792
0.368858
0.367019
0.365237
0.363488
0.361755
0.360032
0.358317
0.356614
0.354924
0.353254
0.351607
0.349986
0.348397
0.346841
0.345323
0.343861
0.37283
0.37068
0.368662
0.366755
0.364938
0.363191
0.3615
0.359856
0.35825
0.35668
0.355144
0.353641
0.352171
0.350736
0.349335
0.347969
0.346641
0.345367
0.372815
0.370635
0.368577
0.36663
0.364782
0.363023
0.361341
0.359727
0.358173
0.356674
0.355225
0.353822
0.352463
0.351147
0.349872
0.348636
0.347441
0.346299
0.372808
0.370617
0.368542
0.366575
0.36471
0.362938
0.361252
0.359644
0.358108
0.356638
0.355229
0.353877
0.352578
0.351329
0.350127
0.34897
0.347857
0.346799
0.372803
0.370607
0.368526
0.366551
0.364677
0.362897
0.361205
0.359595
0.358061
0.356599
0.355204
0.353872
0.352598
0.351379
0.350213
0.349095
0.348025
0.347013
0.3728
0.370602
0.368516
0.366538
0.364659
0.362875
0.361179
0.359566
0.358031
0.35657
0.355177
0.353849
0.352583
0.351374
0.35022
0.349118
0.348066
0.347073
0.372798
0.370598
0.36851
0.366529
0.364648
0.362862
0.361163
0.359548
0.358011
0.356548
0.355155
0.353828
0.352562
0.351356
0.350205
0.349106
0.348059
0.347073
0.372796
0.370594
0.368506
0.366523
0.364641
0.362852
0.361152
0.359536
0.357998
0.356533
0.355139
0.353811
0.352545
0.351339
0.350188
0.34909
0.348045
0.34706
0.372795
0.370592
0.368502
0.366519
0.364635
0.362846
0.361145
0.359527
0.357988
0.356523
0.355128
0.3538
0.352534
0.351327
0.350176
0.349079
0.348033
0.347049
0.372794
0.370591
0.3685
0.366516
0.364632
0.362841
0.36114
0.359521
0.357982
0.356517
0.355122
0.353793
0.352527
0.35132
0.35017
0.349073
0.348028
0.347044
0.372794
0.37059
0.368499
0.366515
0.36463
0.36284
0.361138
0.35952
0.35798
0.356515
0.35512
0.353792
0.352526
0.35132
0.35017
0.349074
0.348029
0.347046
0.372794
0.37059
0.3685
0.366515
0.364631
0.362841
0.361139
0.359522
0.357983
0.356518
0.355124
0.353796
0.352531
0.351326
0.350177
0.349081
0.348037
0.347055
0.372794
0.370591
0.368501
0.366517
0.364634
0.362844
0.361144
0.359527
0.357989
0.356526
0.355132
0.353806
0.352542
0.351337
0.350189
0.349095
0.348052
0.347071
0.372795
0.370593
0.368504
0.366521
0.364639
0.362851
0.361153
0.359538
0.358003
0.356542
0.355151
0.353827
0.352565
0.351362
0.350216
0.349122
0.34808
0.347099
0.372796
0.370596
0.368509
0.366531
0.364654
0.362873
0.361181
0.359573
0.358045
0.35659
0.355205
0.353885
0.352626
0.351424
0.350277
0.349181
0.348135
0.347148
0.3728
0.370606
0.368532
0.366571
0.364715
0.362957
0.361288
0.359701
0.358189
0.356746
0.355366
0.354044
0.352778
0.351562
0.350395
0.349274
0.348198
0.347176
0.372815
0.370661
0.368649
0.366762
0.364983
0.363294
0.361679
0.360127
0.358629
0.357179
0.355772
0.354404
0.353076
0.351784
0.350529
0.34931
0.348128
0.346996
0.372911
0.370958
0.369194
0.367545
0.365955
0.364387
0.362823
0.361254
0.35968
0.358104
0.356532
0.354969
0.353421
0.351892
0.350389
0.348913
0.34747
0.346077
0.373468
0.372366
0.371364
0.370239
0.368906
0.367362
0.365635
0.363766
0.361794
0.359753
0.357671
0.355572
0.353472
0.351388
0.349329
0.347306
0.345325
0.343409
0.376461
0.378228
0.378833
0.37817
0.376547
0.37427
0.371562
0.36858
0.365429
0.362185
0.358901
0.355617
0.352363
0.34916
0.346026
0.342972
0.340008
0.337156
0.39261
0.40135
0.402177
0.399531
0.395321
0.390359
0.385032
0.379546
0.374019
0.368532
0.363142
0.35789
0.352807
0.347916
0.343231
0.33876
0.334506
0.33048
0.43829
0.449772
0.450791
0.449556
0.447802
0.445818
0.443687
0.441456
0.439161
0.436841
0.434533
0.432275
0.430096
0.428023
0.42607
0.424243
0.42253
0.420872
0.544749
0.705346
0.836394
0.94615
1.04204
1.12376
1.19183
1.24736
1.29176
1.32654
1.35315
1.37295
1.38714
1.39676
1.40268
1.40565
1.4063
1.40509
0.0242949
0.037905
0.0449094
0.0506645
0.0577437
0.0667609
0.0806653
0.0962866
0.113259
0.131176
0.14984
0.169052
0.188639
0.208523
0.228652
0.248983
0.269483
0.290122
0.310872
0.33171
0.352614
0.373564
0.394541
0.415527
0.436507
0.457463
0.478383
0.499252
0.520057
0.540787
0.561429
0.581975
0.602414
0.622738
0.642938
0.663008
0.682942
0.702734
0.722382
0.741882
0.761233
0.780434
0.799487
0.818392
0.837154
0.855778
0.87427
0.892639
0.910895
0.92905
0.947116
0.965109
0.983047
1.00095
1.01883
1.03673
1.05465
1.07263
1.0907
1.10888
1.12721
1.14571
1.16443
1.18338
1.20261
1.22214
1.242
1.26223
1.28285
1.30389
1.32537
1.3473
1.36971
1.3926
1.41599
1.43987
1.46424
1.48912
1.51449
1.54038
1.56679
1.59379
1.62146
1.64996
1.67877
1.70737
1.73556
1.76311
1.78976
1.81519
1.83906
1.86101
1.88062
1.89746
1.91108
1.92102
1.92683
1.92809
1.92442
1.91552
1.90115
1.88122
1.85573
1.82481
1.78876
1.74796
1.70293
1.65427
1.60264
1.54873
1.49322
1.43679
1.38006
1.32358
1.26786
1.21326
1.16032
1.1095
1.06218
1.019
0.983189
0.94995
0.918586
0.888912
0.860834
0.834273
0.809152
0.785392
0.76291
0.741629
0.721475
0.70238
0.684277
0.667101
0.650793
0.635294
0.620553
0.606519
0.593143
0.580384
0.568202
0.556559
0.545421
0.534755
0.524534
0.51473
0.505318
0.496275
0.487579
0.479211
0.471154
0.463391
0.455906
0.448686
0.441719
0.434992
0.428496
0.42222
0.416155
0.410295
0.404631
0.399155
0.39386
0.388741
0.383789
0.378997
0.374359
0.369865
0.365506
0.361271
0.357144
0.353104
0.349127
0.345171
0.341181
0.337062
0.3328
0.328362
0.323374
0.316173
0.050891
0.0928506
0.123128
0.14646
0.167222
0.189247
0.214416
0.24293
0.273873
0.306402
0.339995
0.374343
0.409266
0.444656
0.480441
0.516572
0.553007
0.589712
0.626658
0.663817
0.701163
0.738669
0.77631
0.814059
0.85189
0.889774
0.927684
0.965592
1.00347
1.04129
1.07903
1.11665
1.15414
1.19146
1.2286
1.26552
1.30221
1.33864
1.3748
1.41068
1.44625
1.4815
1.51643
1.55102
1.58528
1.6192
1.65279
1.68604
1.71897
1.75159
1.78391
1.81596
1.84776
1.87934
1.91073
1.94197
1.97311
2.0042
2.03528
2.06642
2.09769
2.12914
2.16085
2.19291
2.22538
2.25837
2.29194
2.3262
2.36123
2.39712
2.43396
2.47184
2.51084
2.55104
2.59251
2.63533
2.67953
2.72517
2.77227
2.82085
2.8709
2.92239
2.97527
3.02885
3.08292
3.13756
3.19254
3.24752
3.30208
3.35571
3.40784
3.45779
3.5048
3.54804
3.58659
3.6195
3.64578
3.66447
3.67462
3.67544
3.66623
3.64652
3.61608
3.57493
3.52336
3.46196
3.39155
3.31317
3.22799
3.1373
3.0424
2.94455
2.84496
2.74468
2.64472
2.54564
2.44828
2.35292
2.26285
2.17701
2.09601
2.01905
1.94596
1.87663
1.81094
1.74873
1.68984
1.6341
1.58134
1.53137
1.48403
1.43914
1.39655
1.35611
1.31767
1.28111
1.2463
1.21312
1.18147
1.15124
1.12234
1.09468
1.0682
1.0428
1.01843
0.99502
0.972514
0.950857
0.930002
0.909903
0.89052
0.871813
0.853749
0.836295
0.819422
0.803104
0.787314
0.772032
0.757235
0.742904
0.729022
0.715572
0.702534
0.689896
0.677643
0.665759
0.65423
0.643042
0.632177
0.621621
0.611358
0.601366
0.591624
0.582106
0.572784
0.56362
0.554511
0.545543
0.536826
0.529501
0.0787036
0.155663
0.198149
0.230127
0.259918
0.291046
0.325082
0.362242
0.401965
0.443563
0.486496
0.530401
0.575045
0.620281
0.66601
0.712166
0.758701
0.805578
0.852767
0.90024
0.947973
0.995942
1.04412
1.09248
1.141
1.18964
1.23837
1.28717
1.33599
1.3848
1.43356
1.48225
1.53081
1.57923
1.62745
1.67545
1.7232
1.77065
1.81779
1.86458
1.91099
1.95701
2.00261
2.04776
2.09246
2.13669
2.18044
2.22371
2.26649
2.30878
2.35059
2.39193
2.43281
2.47326
2.5133
2.55296
2.59228
2.63129
2.67005
2.70862
2.74705
2.78541
2.82378
2.86223
2.90086
2.93975
2.97901
3.01873
3.05903
3.1
3.14178
3.18446
3.22817
3.27301
3.31909
3.36652
3.41539
3.46579
3.51778
3.57142
3.62674
3.68373
3.74228
3.80189
3.86269
3.92458
3.98734
4.05063
4.11403
4.177
4.23891
4.29898
4.35633
4.40994
4.45868
4.50131
4.53655
4.56309
4.57964
4.58502
4.57824
4.55851
4.52538
4.47872
4.41879
4.34619
4.2619
4.16715
4.06341
3.95229
3.83541
3.7144
3.59078
3.46586
3.34106
3.21644
3.09552
2.97868
2.8669
2.76018
2.65856
2.56179
2.46973
2.38229
2.29934
2.22069
2.14618
2.07557
2.00867
1.94526
1.88512
1.82806
1.77387
1.72236
1.67338
1.62674
1.58229
1.53989
1.49941
1.46071
1.42369
1.38824
1.35425
1.32164
1.29032
1.26022
1.23125
1.20337
1.1765
1.15058
1.12558
1.10144
1.07811
1.05556
1.03375
1.01265
0.992218
0.972436
0.953275
0.934709
0.916716
0.899274
0.882362
0.86596
0.85005
0.834614
0.819634
0.805093
0.790974
0.777258
0.76393
0.750971
0.738365
0.726098
0.714163
0.702565
0.691303
0.680601
0.670847
0.663519
0.103949
0.208954
0.263643
0.304733
0.342111
0.379874
0.419855
0.462564
0.507782
0.555038
0.603868
0.653907
0.704895
0.756657
0.809072
0.862059
0.915562
0.969537
1.02395
1.07878
1.134
1.18958
1.24549
1.30172
1.35822
1.41496
1.47191
1.52902
1.58625
1.64357
1.70092
1.75826
1.81554
1.87271
1.92972
1.98653
2.04309
2.09936
2.15528
2.21082
2.26594
2.32059
2.37474
2.42836
2.48141
2.53386
2.5857
2.63689
2.68742
2.73728
2.78646
2.83494
2.88273
2.92984
2.97626
3.02203
3.06715
3.11167
3.1556
3.19899
3.2419
3.28438
3.32649
3.36831
3.40992
3.45142
3.49289
3.53445
3.57622
3.61831
3.66086
3.704
3.74789
3.79265
3.83845
3.88543
3.93374
3.98351
4.03489
4.088
4.14294
4.19983
4.25833
4.3186
4.38066
4.44446
4.50984
4.57655
4.64422
4.71236
4.78034
4.84739
4.91254
4.97468
5.03249
5.08454
5.12924
5.16496
5.19006
5.20298
5.20233
5.187
5.15623
5.10968
5.04746
4.97016
4.87879
4.77474
4.65966
4.53542
4.40391
4.26707
4.12667
3.98409
3.84183
3.70182
3.5655
3.43367
3.30697
3.18563
3.06969
2.95907
2.85371
2.75353
2.65837
2.56809
2.48246
2.40126
2.32426
2.25122
2.1819
2.11608
2.05354
1.99405
1.93743
1.88349
1.83205
1.78295
1.73604
1.69117
1.64822
1.60706
1.56759
1.52969
1.49328
1.45826
1.42455
1.39209
1.36079
1.3306
1.30145
1.2733
1.2461
1.21979
1.19434
1.16971
1.14586
1.12276
1.10038
1.07869
1.05767
1.03728
1.01751
0.998336
0.979732
0.96168
0.944159
0.927153
0.910643
0.89461
0.879041
0.86392
0.849239
0.834993
0.821199
0.807896
0.795165
0.783234
0.772578
0.764366
0.129225
0.251823
0.317732
0.367047
0.410993
0.454138
0.498628
0.545294
0.594237
0.645223
0.697921
0.752022
0.807284
0.863527
0.920624
0.978489
1.03706
1.09629
1.15614
1.21659
1.27762
1.33918
1.40126
1.46383
1.52683
1.59025
1.65402
1.71811
1.78246
1.84702
1.91174
1.97654
2.04138
2.10618
2.17089
2.23545
2.29979
2.36386
2.42758
2.4909
2.55377
2.61612
2.67791
2.73908
2.79958
2.85937
2.9184
2.97663
3.03403
3.09056
3.1462
3.20091
3.25468
3.3075
3.35934
3.41021
3.46011
3.50904
3.55703
3.60409
3.65025
3.69556
3.74006
3.78382
3.82691
3.8694
3.91139
3.953
3.99433
4.03551
4.0767
4.11805
4.15972
4.2019
4.24477
4.28853
4.3334
4.37957
4.42725
4.47665
4.52797
4.58138
4.63682
4.69455
4.75469
4.8173
4.88236
4.94974
5.0192
5.09036
5.16267
5.23538
5.30755
5.378
5.4453
5.5078
5.56365
5.61086
5.64737
5.67118
5.68043
5.67357
5.64944
5.60738
5.54731
5.46969
5.37556
5.2664
5.14404
5.01063
4.86823
4.71923
4.56557
4.41079
4.25665
4.10478
3.95653
3.81282
3.67431
3.54131
3.41396
3.29227
3.17622
3.06574
2.9607
2.86093
2.76622
2.67634
2.59104
2.51005
2.43314
2.36006
2.29056
2.22442
2.16143
2.10138
2.04408
1.98936
1.93704
1.88698
1.83903
1.79306
1.74895
1.70658
1.66586
1.62667
1.58895
1.5526
1.51754
1.48372
1.45106
1.4195
1.389
1.35949
1.33095
1.30331
1.27655
1.25063
1.2255
1.20115
1.17755
1.15465
1.13245
1.11091
1.09001
1.06973
1.05005
1.03094
1.0124
0.994399
0.97693
0.959982
0.943553
0.92765
0.912306
0.897587
0.883624
0.870595
0.858962
0.849549
0.14977
0.284712
0.359499
0.415574
0.465008
0.512611
0.560721
0.610406
0.662027
0.715567
0.77085
0.827659
0.8858
0.945116
1.00549
1.06684
1.12911
1.19226
1.25624
1.32103
1.38661
1.45295
1.52001
1.58776
1.65616
1.72515
1.7947
1.86475
1.93522
2.00607
2.07721
2.14858
2.2201
2.29171
2.36331
2.43484
2.50621
2.57734
2.64817
2.7186
2.78858
2.85801
2.92684
2.99498
3.06238
3.12897
3.19468
3.25945
3.32322
3.38595
3.44758
3.50807
3.56737
3.62543
3.68224
3.73776
3.79197
3.84484
3.89638
3.94659
3.99546
4.04302
4.08929
4.13433
4.17816
4.22088
4.26254
4.30326
4.34314
4.38231
4.42093
4.45915
4.49717
4.5352
4.57344
4.61216
4.65161
4.69206
4.7338
4.77713
4.82233
4.8697
4.91942
4.97186
5.02729
5.08593
5.14794
5.21337
5.28217
5.35413
5.42887
5.50577
5.58397
5.66231
5.7393
5.81314
5.88171
5.94265
5.99344
6.03152
6.05444
6.06007
6.04673
6.01332
5.95943
5.88537
5.79211
5.68126
5.55475
5.4152
5.26447
5.10705
4.94516
4.78145
4.61805
4.45667
4.29872
4.14523
3.99692
3.85421
3.71733
3.58635
3.4613
3.34212
3.2287
3.12085
3.01838
2.92103
2.82857
2.74072
2.65722
2.57781
2.50225
2.43029
2.36171
2.29628
2.23382
2.17413
2.11703
2.06237
2.00998
1.95974
1.9115
1.86515
1.82058
1.77768
1.73637
1.69654
1.65812
1.62104
1.58523
1.55062
1.51716
1.48479
1.45346
1.42313
1.39375
1.36528
1.3377
1.31095
1.28502
1.25987
1.23547
1.21181
1.18884
1.16655
1.14492
1.12393
1.10356
1.08379
1.06461
1.04603
1.02804
1.01065
0.993928
0.977941
0.962833
0.948758
0.936087
0.925385
0.165912
0.30817
0.389331
0.450481
0.504176
0.5553
0.606253
0.65824
0.711795
0.767077
0.82405
0.882601
0.942599
1.00393
1.0665
1.13024
1.19511
1.26106
1.32807
1.39611
1.46516
1.53519
1.60616
1.67805
1.75079
1.82436
1.89868
1.97369
2.04933
2.12553
2.20219
2.27924
2.35659
2.43416
2.51185
2.58957
2.66723
2.74473
2.82197
2.89888
2.97534
3.05128
3.1266
3.2012
3.27502
3.34795
3.41992
3.49085
3.56065
3.62925
3.69658
3.76257
3.82715
3.89026
3.95183
4.01182
4.07017
4.12684
4.1818
4.23501
4.28646
4.33613
4.38402
4.43015
4.47455
4.51725
4.55831
4.59782
4.63586
4.67255
4.70804
4.74249
4.77609
4.80907
4.84166
4.87415
4.90684
4.94006
4.97416
5.00954
5.0466
5.08568
5.12726
5.17181
5.21978
5.27157
5.32758
5.38808
5.45327
5.52322
5.59779
5.67661
5.759
5.84396
5.93003
6.01535
6.0976
6.17404
6.24164
6.29718
6.3375
6.3597
6.36137
6.34082
6.29718
6.23049
6.14162
6.03239
5.90441
5.76206
5.60799
5.44571
5.27812
5.10792
4.9374
4.76848
4.60268
4.44115
4.28472
4.13391
3.98903
3.85024
3.71757
3.591
3.47041
3.35564
3.24648
3.14269
3.044
2.95016
2.86089
2.77593
2.69502
2.61791
2.54436
2.47416
2.40708
2.34295
2.28156
2.22276
2.16638
2.11227
2.06031
2.01035
1.96229
1.91602
1.87144
1.82845
1.78697
1.74693
1.70824
1.67084
1.63467
1.59968
1.5658
1.533
1.50122
1.47042
1.44057
1.41163
1.38356
1.35634
1.32992
1.3043
1.27943
1.25529
1.23187
1.20914
1.18708
1.16569
1.14495
1.12486
1.10543
1.08669
1.06869
1.05153
1.03533
1.02023
1.00648
0.994478
0.177718
0.323113
0.408343
0.472915
0.52959
0.583233
0.636226
0.68982
0.744653
0.801001
0.858943
0.918457
0.979481
1.04195
1.1058
1.17098
1.23747
1.30524
1.37427
1.44453
1.51602
1.5887
1.66254
1.73751
1.81357
1.89065
1.9687
2.04766
2.12745
2.20798
2.28918
2.37094
2.45318
2.53579
2.61867
2.70172
2.78483
2.86789
2.9508
3.03344
3.11571
3.19749
3.27869
3.3592
3.4389
3.51771
3.5955
3.67219
3.74768
3.82186
3.89464
3.96593
4.03563
4.10365
4.16992
4.23434
4.29685
4.35736
4.41581
4.47215
4.52631
4.57825
4.62794
4.67537
4.72052
4.7634
4.80404
4.84249
4.87881
4.9131
4.94548
4.97609
5.00512
5.03279
5.05933
5.08505
5.11027
5.13535
5.16071
5.1868
5.2141
5.2431
5.27442
5.30868
5.3465
5.38851
5.43532
5.48751
5.54559
5.60994
5.68081
5.75817
5.84173
5.93074
6.02402
6.11975
6.21553
6.30835
6.39464
6.47045
6.5317
6.57454
6.59556
6.59225
6.56312
6.50782
6.42686
6.32299
6.19871
6.05764
5.9032
5.73892
5.56805
5.39354
5.21793
5.04333
4.87144
4.70354
4.54059
4.38322
4.23181
4.08659
3.94762
3.8149
3.68832
3.56773
3.45291
3.34363
3.23963
3.14064
3.04639
2.9566
2.87102
2.7894
2.71148
2.63705
2.56589
2.4978
2.43259
2.37008
2.31012
2.25254
2.19721
2.14399
2.09278
2.04345
1.99589
1.95003
1.90576
1.863
1.82168
1.78173
1.74309
1.70569
1.66947
1.6344
1.60041
1.56747
1.53554
1.50457
1.47453
1.44539
1.41711
1.38968
1.36305
1.3372
1.31212
1.28778
1.26417
1.24127
1.21908
1.1976
1.17684
1.15684
1.13765
1.11937
1.10212
1.08601
1.07118
1.05791
0.185437
0.330589
0.417922
0.484437
0.542879
0.598042
0.652245
0.706736
0.762194
0.81897
0.877223
0.937005
0.998314
1.06113
1.12543
1.19119
1.2584
1.32704
1.39711
1.46861
1.54151
1.61579
1.69144
1.76842
1.84669
1.9262
2.00688
2.08868
2.1715
2.25528
2.33992
2.42532
2.51138
2.59799
2.68505
2.77243
2.86003
2.94773
3.0354
3.12292
3.21018
3.29705
3.38341
3.46914
3.55412
3.63822
3.72134
3.80333
3.8841
3.96351
4.04146
4.11782
4.19248
4.26533
4.33625
4.40514
4.47188
4.53638
4.59853
4.65824
4.71542
4.77
4.82191
4.87108
4.91747
4.96105
5.00181
5.03976
5.07492
5.10736
5.13715
5.16442
5.18931
5.21201
5.23277
5.25184
5.26956
5.2863
5.3025
5.31863
5.33524
5.35292
5.37239
5.39439
5.4197
5.44915
5.48358
5.52388
5.57088
5.62539
5.6881
5.75948
5.83976
5.92872
6.02563
6.12902
6.23661
6.34529
6.45107
6.54917
6.63445
6.7019
6.74669
6.76523
6.75515
6.71592
6.64834
6.55471
6.43799
6.3018
6.14999
5.98641
5.81467
5.63804
5.45935
5.28097
5.10477
4.93223
4.76441
4.60204
4.4456
4.29536
4.15143
4.01383
3.88246
3.75717
3.63775
3.52398
3.41559
3.31232
3.21389
3.12003
3.03049
2.945
2.86334
2.78526
2.71055
2.639
2.57044
2.50467
2.44153
2.38088
2.32256
2.26644
2.2124
2.16032
2.1101
2.06164
2.01485
1.96965
1.92595
1.88369
1.84279
1.8032
1.76486
1.72771
1.69171
1.65681
1.62296
1.59014
1.55829
1.52739
1.49741
1.46831
1.44006
1.41264
1.38603
1.36021
1.33516
1.31087
1.28734
1.26457
1.24258
1.22141
1.20111
1.18177
1.16351
1.14643
1.13051
1.11602
0.189412
0.331691
0.419537
0.486763
0.545908
0.601662
0.656269
0.710944
0.766374
0.82295
0.88088
0.940271
1.00117
1.0636
1.12756
1.19307
1.26013
1.32874
1.39892
1.47065
1.54394
1.61878
1.69516
1.77304
1.85239
1.93316
2.01531
2.09876
2.18344
2.26927
2.35615
2.444
2.53271
2.62217
2.71226
2.80286
2.89386
2.98513
3.07653
3.16796
3.25926
3.35031
3.44098
3.53114
3.62064
3.70936
3.79715
3.88389
3.96944
4.05366
4.13641
4.21755
4.29695
4.37448
4.44998
4.52333
4.5944
4.66304
4.72913
4.79254
4.85315
4.91084
4.9655
5.01703
5.06536
5.11039
5.15208
5.19039
5.22529
5.25681
5.28498
5.30986
5.33157
5.35024
5.36608
5.37931
5.39022
5.39918
5.40659
5.41293
5.41874
5.42467
5.43149
5.44001
5.45111
5.46577
5.48504
5.51004
5.54198
5.58206
5.63148
5.69133
5.76252
5.8456
5.94062
6.0468
6.16234
6.28436
6.40876
6.52993
6.64149
6.7372
6.8102
6.85563
6.87033
6.85297
6.80397
6.72534
6.6202
6.49246
6.34638
6.18623
6.01607
5.83958
5.65992
5.47973
5.30111
5.12571
4.95473
4.78901
4.6291
4.47533
4.32786
4.1867
4.05179
3.92298
3.80008
3.68285
3.57104
3.4644
3.36264
3.26551
3.17275
3.0841
2.99933
2.91821
2.84052
2.76606
2.69464
2.62608
2.56022
2.4969
2.43599
2.37733
2.32082
2.26634
2.21377
2.16302
2.114
2.06662
2.0208
1.97647
1.93356
1.89201
1.85176
1.81275
1.77493
1.73826
1.7027
1.66819
1.63471
1.60222
1.57068
1.54007
1.51035
1.4815
1.4535
1.42632
1.39996
1.3744
1.34965
1.3257
1.30257
1.28032
1.25898
1.23865
1.21942
1.20138
1.18443
1.16879
0.190019
0.327511
0.414648
0.481618
0.540589
0.596131
0.650409
0.704596
0.759372
0.815141
0.872142
0.930517
0.990352
1.0517
1.11459
1.17907
1.24515
1.31285
1.38219
1.4532
1.52587
1.60021
1.67622
1.75387
1.83315
1.914
1.9964
2.08027
2.16556
2.25218
2.34005
2.42908
2.51917
2.61021
2.70209
2.79468
2.88787
2.98154
3.07553
3.16974
3.26402
3.35822
3.45222
3.54587
3.63903
3.73154
3.82327
3.91406
4.00377
4.09224
4.17932
4.26485
4.34867
4.43063
4.51057
4.58833
4.66374
4.73665
4.80688
4.87429
4.93872
5.00001
5.05801
5.1126
5.16363
5.21098
5.25457
5.29428
5.33007
5.36188
5.38969
5.41353
5.43343
5.44948
5.46182
5.47062
5.47611
5.47859
5.4784
5.47598
5.47184
5.46658
5.46097
5.45582
5.45204
5.45066
5.45286
5.45994
5.47334
5.49465
5.52556
5.56779
5.62305
5.69288
5.77844
5.88016
5.99713
6.12727
6.26702
6.41022
6.54889
6.6751
6.78076
6.85894
6.90468
6.91527
6.89038
6.83168
6.74242
6.62684
6.48972
6.33586
6.16988
5.99588
5.81744
5.6375
5.45844
5.28206
5.10972
4.94237
4.78063
4.6249
4.47535
4.33203
4.19489
4.0638
3.93857
3.81898
3.70479
3.59573
3.49154
3.39198
3.29679
3.20571
3.11853
3.03501
2.95494
2.87813
2.80439
2.73355
2.66544
2.59991
2.53681
2.47602
2.41742
2.36088
2.3063
2.25359
2.20264
2.15338
2.10572
2.05959
2.01493
1.97166
1.92973
1.88908
1.84966
1.81143
1.77434
1.73835
1.70341
1.6695
1.63658
1.60462
1.57358
1.54345
1.5142
1.48581
1.45827
1.43157
1.40571
1.38069
1.35654
1.33329
1.311
1.28974
1.26959
1.25062
1.23272
1.21602
0.187642
0.319081
0.40463
0.470639
0.528773
0.583462
0.636798
0.689913
0.743473
0.797884
0.853401
0.91019
0.96836
1.02799
1.08914
1.15185
1.21617
1.28214
1.34977
1.41912
1.49019
1.56301
1.63757
1.71388
1.79192
1.87167
1.95309
2.03614
2.12076
2.20688
2.29443
2.38333
2.47348
2.56478
2.65713
2.75041
2.84451
2.9393
3.03465
3.13043
3.2265
3.32273
3.41897
3.51507
3.61089
3.70627
3.80105
3.89509
3.98822
4.08027
4.17107
4.26047
4.34828
4.43432
4.51843
4.60041
4.68008
4.75726
4.83176
4.90339
4.97195
5.03727
5.09916
5.15745
5.21195
5.26251
5.30898
5.35122
5.3891
5.42254
5.45145
5.47579
5.49553
5.5107
5.52136
5.5276
5.52957
5.52749
5.52162
5.5123
5.49995
5.48509
5.46839
5.45059
5.43254
5.41523
5.39981
5.38765
5.38029
5.37954
5.38744
5.40628
5.43854
5.4868
5.55364
5.64142
5.75046
5.88019
6.02785
6.1879
6.3522
6.51092
6.65353
6.77028
6.85352
6.89856
6.90378
6.87036
6.80159
6.70215
6.57742
6.43287
6.27374
6.1047
5.92977
5.75226
5.5748
5.39941
5.2276
5.06041
4.89855
4.74246
4.59237
4.44834
4.31034
4.17826
4.05191
3.9311
3.81557
3.7051
3.59943
3.49832
3.40151
3.30878
3.21991
3.13467
3.05287
2.97431
2.89881
2.82621
2.75635
2.68907
2.62425
2.56175
2.50145
2.44324
2.38701
2.33267
2.28012
2.22929
2.18009
2.13245
2.08629
2.04157
1.99821
1.95616
1.91537
1.8758
1.83739
1.80011
1.76392
1.72878
1.69466
1.66152
1.62934
1.59808
1.56774
1.53829
1.50971
1.482
1.45516
1.42919
1.40413
1.37999
1.35683
1.33472
1.31372
1.29388
1.27509
1.25742
0.182671
0.307353
0.390745
0.455342
0.512197
0.565581
0.617518
0.669108
0.721
0.773598
0.827164
0.881877
0.937862
0.995217
1.05402
1.11435
1.17624
1.23972
1.30484
1.37166
1.44022
1.51053
1.58263
1.65653
1.73222
1.80971
1.88896
1.96995
2.05264
2.13698
2.2229
2.31034
2.39922
2.48946
2.58094
2.67358
2.76726
2.86187
2.95728
3.05337
3.15001
3.24705
3.34436
3.44179
3.53919
3.6364
3.73328
3.82964
3.92533
4.02017
4.11398
4.2066
4.29782
4.38746
4.47532
4.56121
4.64493
4.72625
4.80498
4.88089
4.95378
5.02343
5.08961
5.15213
5.21076
5.2653
5.31556
5.36136
5.40253
5.4389
5.47035
5.49678
5.51808
5.53422
5.54518
5.55096
5.55164
5.54732
5.53816
5.52439
5.5063
5.48425
5.45879
5.43051
5.40011
5.36843
5.33649
5.30553
5.27703
5.25279
5.23497
5.22617
5.22943
5.24825
5.28649
5.34803
5.43604
5.55245
5.69688
5.86559
6.05089
6.24152
6.42399
6.5847
6.71219
6.79867
6.84062
6.83833
6.79508
6.71603
6.60732
6.47524
6.32577
6.16424
5.99519
5.82234
5.64861
5.47624
5.30688
5.14169
4.98147
4.82669
4.67762
4.53437
4.39691
4.26515
4.13893
4.01805
3.9023
3.79145
3.68525
3.58349
3.48593
3.39235
3.30253
3.21628
3.1334
3.05372
2.97706
2.90325
2.83216
2.76364
2.69755
2.63378
2.57221
2.51272
2.45522
2.39962
2.34582
2.29374
2.24331
2.19445
2.14709
2.10118
2.05666
2.01346
1.97155
1.93086
1.89137
1.85302
1.81578
1.7796
1.74447
1.71034
1.67719
1.64499
1.61372
1.58336
1.55389
1.52532
1.49763
1.47085
1.44498
1.42006
1.39613
1.37326
1.35148
1.33084
1.31125
1.2927
0.176207
0.293217
0.374173
0.437167
0.492527
0.54436
0.594629
0.644406
0.694326
0.74479
0.796061
0.848322
0.901707
0.956321
1.01225
1.06957
1.12835
1.18863
1.2505
1.314
1.37919
1.44611
1.5148
1.58529
1.65759
1.73173
1.80769
1.88546
1.96503
2.04637
2.12942
2.21414
2.30047
2.38834
2.47767
2.56836
2.66033
2.75347
2.84767
2.94281
3.03876
3.13541
3.23261
3.33021
3.42808
3.52606
3.62398
3.72169
3.81901
3.91577
4.01179
4.10687
4.20083
4.29346
4.38455
4.47389
4.56127
4.64646
4.72923
4.80935
4.88657
4.96066
5.03136
5.09845
5.16167
5.22079
5.27557
5.32578
5.37121
5.41166
5.44694
5.47688
5.50134
5.5202
5.53336
5.54076
5.54237
5.53819
5.52828
5.51273
5.4917
5.46538
5.43414
5.39838
5.3586
5.31541
5.26959
5.2221
5.17416
5.12732
5.08352
5.04526
5.01569
4.99878
4.99935
5.02299
5.07563
5.1628
5.28821
5.45188
5.64843
5.86635
6.08915
6.29825
6.47672
6.61218
6.69809
6.73334
6.72104
6.66692
6.57802
6.46166
6.32473
6.17332
6.01257
5.84664
5.67879
5.51149
5.34654
5.18523
5.02841
4.87662
4.73017
4.58919
4.45369
4.32358
4.19874
4.07898
3.96411
3.85391
3.74818
3.64669
3.54924
3.45561
3.36563
3.27909
3.19582
3.11565
3.03842
2.96399
2.89221
2.82295
2.75609
2.6915
2.62909
2.56874
2.51037
2.45387
2.39918
2.3462
2.29486
2.24509
2.19684
2.15003
2.10461
2.06053
2.01774
1.97619
1.93584
1.89665
1.85857
1.82158
1.78564
1.75071
1.71678
1.68381
1.65178
1.62068
1.59048
1.5612
1.53281
1.50534
1.4788
1.45321
1.42862
1.40508
1.38262
1.36126
1.34092
1.32161
0.168279
0.277609
0.355915
0.417195
0.47095
0.521095
0.569531
0.617305
0.66504
0.713129
0.761836
0.811343
0.861786
0.913276
0.965906
1.01976
1.07491
1.13144
1.18942
1.24893
1.31002
1.37276
1.43721
1.50341
1.5714
1.64122
1.71289
1.78641
1.86178
1.93901
2.01807
2.09892
2.18153
2.26585
2.35182
2.43937
2.52842
2.61888
2.71066
2.80365
2.89774
2.99282
3.08875
3.1854
3.28264
3.3803
3.47825
3.5763
3.6743
3.77207
3.86942
3.96616
4.06209
4.15701
4.2507
4.34294
4.43349
4.52213
4.60862
4.69269
4.77409
4.85256
4.92785
4.99966
5.06775
5.13183
5.19164
5.24692
5.29741
5.34286
5.38304
5.41772
5.44672
5.46983
5.48691
5.4978
5.5024
5.5006
5.49236
5.47765
5.45643
5.42879
5.3949
5.35495
5.30922
5.25804
5.20191
5.14143
5.07743
5.01101
4.94363
4.87729
4.81475
4.75974
4.7173
4.69403
4.69809
4.73884
4.82544
4.96428
5.15548
5.39003
5.64947
5.90932
6.14501
6.33728
6.47492
6.55458
6.57895
6.55443
6.48921
6.39183
6.27028
6.13156
5.98149
5.82473
5.6649
5.50471
5.34612
5.19053
5.03888
4.89174
4.74949
4.61227
4.48012
4.35299
4.23077
4.1133
4.00041
3.89192
3.78762
3.68733
3.59086
3.49802
3.40864
3.32254
3.23957
3.15957
3.0824
3.00792
2.936
2.86653
2.79938
2.73446
2.67165
2.61087
2.55202
2.49503
2.4398
2.38627
2.33436
2.28401
2.23516
2.18775
2.14173
2.09704
2.05363
2.01147
1.9705
1.9307
1.89201
1.85441
1.81787
1.78235
1.74783
1.71428
1.68167
1.65
1.61924
1.5894
1.56047
1.53245
1.50536
1.47923
1.4541
1.42999
1.40694
1.38497
1.36398
1.34401
0.158845
0.260937
0.336505
0.396062
0.448231
0.496701
0.543299
0.589039
0.634528
0.68015
0.726163
0.772749
0.820045
0.868163
0.917201
0.967251
1.0184
1.07074
1.12436
1.17934
1.23576
1.29371
1.35326
1.41448
1.47743
1.54216
1.60873
1.67715
1.74747
1.81969
1.89382
1.96985
2.04777
2.12755
2.20915
2.29252
2.37761
2.46434
2.55264
2.64243
2.7336
2.82604
2.91966
3.01432
3.10988
3.20622
3.30318
3.40061
3.49833
3.59618
3.69397
3.79151
3.8886
3.98504
4.0806
4.17505
4.26817
4.35971
4.44941
4.53702
4.62227
4.70488
4.78457
4.86105
4.93403
5.00321
5.06831
5.12902
5.18506
5.23613
5.28196
5.32229
5.35686
5.38544
5.40778
5.42369
5.43295
5.43539
5.43086
5.4192
5.40018
5.37383
5.34011
5.29904
5.25065
5.19505
5.13241
5.06298
4.98716
4.90552
4.81894
4.72869
4.63673
4.54596
4.46073
4.38735
4.33478
4.315
4.34257
4.43223
4.5939
4.82616
5.11197
5.42104
5.71858
5.97517
6.17244
6.30351
6.37028
6.37992
6.34205
6.2667
6.16319
6.03957
5.90243
5.75699
5.60723
5.4561
5.30575
5.15768
5.01288
4.87203
4.73549
4.60347
4.47605
4.35318
4.2348
4.12077
4.01095
3.90518
3.80329
3.70512
3.61049
3.51925
3.43124
3.34631
3.26433
3.18516
3.10866
3.03472
2.96323
2.89407
2.82715
2.76236
2.69962
2.63884
2.57993
2.52282
2.46744
2.41371
2.36158
2.31098
2.26185
2.21414
2.1678
2.12277
2.07902
2.0365
1.99517
1.95499
1.91593
1.87795
1.84102
1.80511
1.7702
1.73625
1.70326
1.67119
1.64004
1.6098
1.58047
1.55205
1.52456
1.49802
1.47245
1.44789
1.42436
1.40188
1.38034
1.3598
0.14818
0.243713
0.316481
0.374351
0.425048
0.47199
0.516895
0.560726
0.604061
0.647271
0.690603
0.734237
0.778311
0.822942
0.868235
0.914293
0.961217
1.00911
1.05807
1.1082
1.1596
1.21238
1.26662
1.32242
1.37986
1.43901
1.49995
1.56274
1.62741
1.69402
1.7626
1.83315
1.90569
1.98021
2.0567
2.13513
2.21547
2.29767
2.38167
2.4674
2.55478
2.64372
2.73412
2.82588
2.91887
3.01297
3.10803
3.2039
3.30044
3.39746
3.4948
3.59226
3.68964
3.78675
3.88336
3.97925
4.07418
4.1679
4.26016
4.3507
4.43923
4.52548
4.60915
4.68995
4.76756
4.84167
4.91196
4.97812
5.03982
5.09674
5.14857
5.195
5.23573
5.27046
5.29891
5.32079
5.33582
5.34374
5.3443
5.33718
5.32204
5.29886
5.26744
5.2276
5.17918
5.12204
5.0561
4.98128
4.89758
4.80512
4.7042
4.5954
4.47981
4.35927
4.23686
4.11755
4.00923
3.92394
3.87904
3.89679
4.00004
4.20207
4.4947
4.84487
5.20541
5.53229
5.79634
5.98522
6.09945
6.14714
6.13965
6.08884
6.00558
5.89911
5.77688
5.64466
5.50682
5.36657
5.2262
5.08731
4.95098
4.81791
4.68855
4.56311
4.4417
4.32433
4.21095
4.10146
3.99576
3.8937
3.79516
3.69999
3.60805
3.51921
3.43334
3.35032
3.27001
3.19231
3.11711
3.0443
2.97379
2.90548
2.83929
2.77512
2.7129
2.65255
2.594
2.53718
2.48203
2.42847
2.37646
2.32594
2.27685
2.22914