/*--------------------------------*- C++ -*----------------------------------*\
| =========                 |                                                 |
| \\      /  F ield         | OpenFOAM: The Open Source CFD Toolbox           |
|  \\    /   O peration     | Version:  2.2.x                                 |
|   \\  /    A nd           | Web:      www.OpenFOAM.org                      |
|    \\/     M anipulation  |                                                 |
\*---------------------------------------------------------------------------*/
FoamFile
{
    version     2.0;
    format      ascii;
    class       volScalarField;
    location    "250";
    object      nut;
}
// * * * * * * * * * * * * * * * * * * * * * * * * * * * * * * * * * * * * * //

dimensions      [0 2 -1 0 0 0 0];

internalField   nonuniform List<scalar> 
12225
(
3.09428e-05
3.71943e-05
4.09465e-05
4.3144e-05
4.43806e-05
4.5021e-05
4.52917e-05
4.53353e-05
4.52415e-05
4.50667e-05
4.48465e-05
4.46032e-05
4.43506e-05
4.40974e-05
4.38487e-05
4.36072e-05
4.33707e-05
4.31593e-05
0.000116606
6.93603e-05
5.15968e-05
4.24065e-05
3.71456e-05
3.39129e-05
3.18209e-05
3.04223e-05
2.94731e-05
2.88307e-05
2.84071e-05
2.8145e-05
2.80057e-05
2.79619e-05
2.79936e-05
2.80847e-05
2.82217e-05
2.83626e-05
0.000365087
0.000223198
0.000162399
0.000127844
0.000105957
9.11501e-05
8.05959e-05
7.27567e-05
6.67429e-05
6.20095e-05
5.8206e-05
5.50982e-05
5.25236e-05
5.03658e-05
4.85377e-05
4.6967e-05
4.55805e-05
4.43427e-05
0.000644589
0.000479018
0.000378598
0.000313305
0.000268165
0.000235554
0.000211112
0.000192222
0.000177248
0.00016512
0.000155115
0.00014673
0.000139603
0.000133469
0.000128125
0.00012341
0.000119194
0.000115456
0.000789258
0.000696751
0.000611813
0.00054188
0.00048583
0.000441012
0.000404881
0.000375403
0.000351043
0.000330663
0.000313417
0.000298663
0.000285918
0.000274803
0.000265025
0.000256347
0.000248591
0.000241719
0.000836142
0.000802017
0.000758836
0.000713761
0.000670761
0.000631583
0.000596693
0.000565934
0.000538908
0.000515154
0.000494225
0.000475719
0.000459285
0.000444626
0.000431487
0.000419656
0.000408964
0.000399397
0.000848365
0.000838505
0.000822801
0.000802816
0.00078036
0.00075696
0.000733698
0.00071125
0.000689994
0.000670106
0.000651637
0.00063456
0.000618808
0.000604291
0.00059091
0.000578568
0.000567184
0.000556815
0.000850836
0.000847522
0.000841595
0.000833058
0.000822324
0.000809981
0.000796622
0.000782753
0.000768769
0.000754959
0.000741519
0.000728577
0.000716207
0.000704448
0.000693308
0.000682784
0.000672868
0.000663688
0.000851476
0.000850223
0.000847993
0.000844558
0.000839873
0.00083404
0.000827244
0.000819707
0.000811649
0.000803267
0.000794727
0.000786162
0.000777676
0.000769346
0.000761227
0.000753359
0.000745775
0.000738615
0.000851641
0.00085103
0.000850147
0.000848857
0.000847066
0.000844729
0.00084185
0.000838469
0.000834651
0.00083047
0.000826004
0.000821328
0.000816509
0.000811608
0.000806673
0.000801748
0.000796874
0.000792165
0.000851673
0.000851219
0.000850721
0.000850132
0.000849405
0.0008485
0.000847393
0.00084607
0.000844531
0.000842785
0.000840851
0.000838748
0.000836503
0.00083414
0.000831683
0.000829156
0.000826585
0.000824041
0.000851675
0.000851249
0.000850835
0.00085042
0.000849989
0.000849528
0.000849021
0.000848458
0.00084783
0.000847132
0.000846361
0.000845518
0.000844605
0.000843629
0.000842593
0.000841506
0.000840378
0.000839243
0.000851672
0.000851248
0.000850846
0.000850462
0.000850092
0.000849731
0.000849375
0.000849018
0.000848657
0.000848288
0.000847907
0.000847513
0.000847103
0.000846677
0.000846234
0.000845775
0.000845303
0.000844835
0.000851669
0.000851244
0.000850841
0.000850459
0.000850097
0.000849751
0.000849421
0.000849105
0.0008488
0.000848505
0.000848218
0.000847938
0.000847664
0.000847394
0.000847128
0.000846865
0.000846606
0.000846364
0.000851667
0.00085124
0.000850836
0.000850453
0.000850089
0.000849744
0.000849417
0.000849105
0.000848807
0.000848524
0.000848252
0.000847993
0.000847744
0.000847506
0.000847277
0.000847057
0.000846848
0.00084666
0.000851665
0.000851237
0.000850832
0.000850447
0.000850083
0.000849737
0.000849408
0.000849096
0.000848799
0.000848516
0.000848246
0.000847989
0.000847744
0.00084751
0.000847286
0.000847073
0.000846872
0.000846694
0.000851664
0.000851235
0.000850829
0.000850444
0.000850078
0.000849732
0.000849402
0.00084909
0.000848792
0.000848509
0.00084824
0.000847983
0.000847738
0.000847505
0.000847282
0.000847071
0.000846871
0.000846694
0.000851664
0.000851235
0.000850828
0.000850442
0.000850077
0.00084973
0.000849401
0.000849088
0.00084879
0.000848507
0.000848238
0.000847982
0.000847738
0.000847505
0.000847283
0.000847072
0.000846874
0.000846698
0.000851664
0.000851235
0.000850828
0.000850443
0.000850078
0.000849731
0.000849402
0.00084909
0.000848793
0.00084851
0.000848241
0.000847985
0.000847741
0.000847509
0.000847287
0.000847076
0.000846877
0.0008467
0.000851664
0.000851236
0.00085083
0.000850445
0.00085008
0.000849734
0.000849405
0.000849092
0.000848794
0.00084851
0.000848238
0.000847978
0.000847729
0.000847489
0.000847259
0.000847037
0.000846826
0.000846636
0.000851665
0.000851237
0.000850832
0.000850447
0.00085008
0.000849728
0.00084939
0.000849063
0.000848744
0.000848431
0.000848122
0.000847816
0.000847511
0.000847207
0.000846903
0.000846598
0.000846295
0.000846004
0.000851666
0.000851237
0.000850823
0.000850418
0.000850013
0.000849597
0.000849163
0.000848703
0.00084821
0.00084768
0.000847112
0.000846505
0.000845859
0.000845177
0.000844461
0.000843715
0.000842945
0.000842171
0.00085166
0.000851194
0.000850682
0.000850078
0.000849343
0.000848444
0.00084736
0.000846085
0.000844618
0.00084297
0.000841157
0.000839198
0.000837116
0.000834933
0.00083267
0.000830349
0.000827991
0.00082564
0.00085157
0.000850737
0.000849409
0.000847426
0.000844713
0.000841266
0.000837143
0.000832434
0.000827247
0.000821694
0.000815879
0.000809898
0.000803833
0.000797752
0.00079171
0.000785754
0.000779921
0.000774285
0.000850707
0.000847141
0.000840919
0.000832123
0.000821182
0.000808664
0.000795137
0.000781087
0.000766896
0.00075285
0.000739149
0.000725928
0.000713271
0.000701225
0.000689808
0.000679022
0.00066886
0.000659359
0.000844115
0.000825238
0.00079857
0.000767815
0.000735791
0.000704346
0.000674518
0.000646793
0.000621325
0.00059809
0.000576969
0.000557799
0.000540406
0.000524615
0.000510264
0.000497204
0.000485302
0.000474487
0.000803431
0.000727193
0.000652799
0.000587901
0.000533142
0.000487427
0.000449244
0.000417175
0.000390048
0.000366931
0.000347085
0.000329929
0.000315001
0.000301932
0.000290427
0.000280248
0.000271204
0.00026316
0.000625881
0.000466179
0.000370327
0.000306454
0.000261116
0.000227662
0.000202193
0.000182294
0.000166417
0.000153526
0.000142903
0.000134038
0.000126556
0.000120182
0.000114705
0.000109966
0.000105844
0.000102262
0.000254188
0.000158478
0.000118189
9.48719e-05
7.9879e-05
6.96781e-05
6.2434e-05
5.71181e-05
5.31173e-05
5.00457e-05
4.76493e-05
4.57552e-05
4.42422e-05
4.30236e-05
4.20358e-05
4.12316e-05
4.05758e-05
4.00479e-05
3.69327e-05
4.20256e-05
4.57634e-05
4.86735e-05
5.10805e-05
5.30455e-05
5.46284e-05
5.58865e-05
5.68723e-05
5.76326e-05
5.82077e-05
5.86318e-05
5.89338e-05
5.91375e-05
5.92625e-05
5.9325e-05
5.93384e-05
5.93124e-05
9.20257e-06
2.46983e-05
2.6938e-05
2.85593e-05
3.0429e-05
3.26046e-05
3.56369e-05
3.8903e-05
4.21582e-05
4.53462e-05
4.84433e-05
5.14407e-05
5.43255e-05
5.71024e-05
5.97789e-05
6.23625e-05
6.48597e-05
6.72763e-05
6.96176e-05
7.1888e-05
7.40917e-05
7.62322e-05
7.83126e-05
8.03357e-05
8.23042e-05
8.42203e-05
8.60861e-05
8.79036e-05
8.96745e-05
9.14004e-05
9.30828e-05
9.47232e-05
9.63227e-05
9.78826e-05
9.94042e-05
0.000100889
0.000102337
0.00010375
0.00010513
0.000106477
0.000107792
0.000109076
0.000110331
0.000111557
0.000112756
0.000113929
0.000115076
0.0001162
0.000117301
0.000118381
0.000119442
0.000120484
0.000121509
0.000122519
0.000123515
0.000124499
0.000125473
0.000126439
0.000127397
0.000128351
0.000129302
0.000130251
0.000131201
0.000132154
0.000133111
0.000134073
0.000135043
0.000136022
0.000137012
0.000138013
0.000139026
0.000140052
0.000141092
0.000142146
0.000143215
0.000144297
0.000145393
0.000146502
0.000147624
0.000148759
0.000149906
0.000151068
0.000152247
0.00015344
0.000154678
0.0001559
0.000157099
0.000158266
0.00015939
0.000160461
0.000161466
0.000162391
0.000163221
0.000163939
0.000164529
0.000164973
0.000165252
0.000165349
0.000165245
0.000164925
0.000164376
0.000163586
0.000162549
0.000161262
0.000159726
0.000157949
0.000155943
0.000153724
0.000151312
0.000148732
0.000146008
0.000143168
0.00014024
0.00013725
0.000134218
0.000131168
0.000128143
0.00012511
0.000122265
0.000119362
0.000117031
0.000114851
0.00011276
0.000110745
0.000108805
0.000106938
0.000105144
0.000103419
0.000101759
0.000100162
9.86251e-05
9.71472e-05
9.57258e-05
9.43582e-05
9.30416e-05
9.17737e-05
9.05518e-05
8.93731e-05
8.8235e-05
8.71353e-05
8.60722e-05
8.50436e-05
8.40473e-05
8.30818e-05
8.21458e-05
8.12377e-05
8.03557e-05
7.94986e-05
7.86653e-05
7.78546e-05
7.70652e-05
7.62959e-05
7.55462e-05
7.48152e-05
7.41021e-05
7.34058e-05
7.2726e-05
7.20621e-05
7.14135e-05
7.07798e-05
7.01608e-05
6.95552e-05
6.89627e-05
6.8384e-05
6.78179e-05
6.72633e-05
6.67208e-05
6.61896e-05
6.56682e-05
6.51568e-05
6.46539e-05
6.41566e-05
6.36638e-05
6.31714e-05
6.26746e-05
6.21641e-05
6.16388e-05
6.10958e-05
6.04988e-05
5.96907e-05
1.33212e-05
7.79965e-05
0.000134944
0.00016482
0.000178912
0.00018768
0.000196247
0.000206874
0.000219316
0.000232972
0.000247406
0.000262368
0.000277719
0.000293371
0.000309266
0.000325356
0.000341602
0.000357969
0.000374425
0.000390938
0.000407479
0.000424019
0.00044053
0.000456985
0.00047336
0.000489629
0.000505769
0.000521758
0.000537575
0.000553201
0.000568617
0.000583807
0.000598756
0.00061345
0.000627876
0.000642023
0.000655881
0.000669442
0.000682698
0.000695644
0.000708274
0.000720585
0.000732575
0.000744242
0.000755588
0.000766613
0.00077732
0.000787714
0.000797799
0.000807585
0.000817079
0.000826292
0.000835236
0.000843927
0.000852381
0.000860617
0.000868656
0.000876522
0.000884243
0.000891847
0.000899367
0.000906838
0.000914297
0.000921787
0.000929349
0.00093703
0.000944879
0.000952945
0.000961279
0.000969936
0.000978968
0.000988429
0.000998371
0.00100885
0.0010199
0.00103158
0.00104391
0.00105694
0.00107067
0.00108511
0.00110025
0.00111603
0.00113238
0.00114857
0.00116482
0.00118172
0.0011993
0.00121752
0.00123627
0.00125546
0.00127493
0.00129452
0.00131401
0.00133317
0.00135171
0.00136934
0.00138573
0.00140053
0.0014134
0.00142402
0.00143206
0.00143728
0.00143947
0.00143851
0.00143435
0.00142702
0.00141666
0.00140345
0.00138765
0.00136958
0.00134957
0.00132797
0.00130513
0.00128137
0.00125704
0.00123234
0.00120769
0.00118284
0.00115779
0.00113153
0.00110419
0.00107706
0.00105061
0.00102504
0.00100041
0.000976725
0.000953989
0.00093217
0.000911235
0.000891146
0.000871862
0.000853342
0.000835547
0.000818434
0.000801964
0.000786101
0.000770808
0.00075605
0.000741795
0.000728014
0.000714676
0.000701757
0.000689231
0.000677075
0.00066527
0.000653794
0.00064263
0.000631762
0.000621173
0.00061085
0.00060078
0.000590951
0.000581352
0.000571974
0.000562808
0.000553846
0.000545079
0.000536502
0.000528108
0.00051989
0.000511845
0.000503966
0.000496246
0.000488682
0.00048127
0.000474001
0.000466872
0.000459876
0.000453005
0.00044625
0.000439604
0.00043305
0.000426574
0.00042015
0.000413747
0.000407291
0.000400272
0.000392037
0.000381073
0.00036249
1.65515e-05
0.000122597
0.000212328
0.000266592
0.000299999
0.000323974
0.000345401
0.000367596
0.000391546
0.000417238
0.000444388
0.000472714
0.000501995
0.000532062
0.000562785
0.000594057
0.000625782
0.000657879
0.000690272
0.000722887
0.00075566
0.000788527
0.000821428
0.000854306
0.000887109
0.000919785
0.000952288
0.000984572
0.0010166
0.00104832
0.0010797
0.00111072
0.00114133
0.00117151
0.00120123
0.00123047
0.00125921
0.00128741
0.00131508
0.00134218
0.00136872
0.00139467
0.00142002
0.00144477
0.00146892
0.00149246
0.00151539
0.0015377
0.00155942
0.00158053
0.00160106
0.00162101
0.0016404
0.00165925
0.00167758
0.00169543
0.00171281
0.00172977
0.00174636
0.00176261
0.00177858
0.00179432
0.0018099
0.00182539
0.00184086
0.0018564
0.00187208
0.00188799
0.00190423
0.0019209
0.00193809
0.00195591
0.00197445
0.00199381
0.00201409
0.00203537
0.00205775
0.00208128
0.00210602
0.00213202
0.00215927
0.00218774
0.00221729
0.00224737
0.00227865
0.00231137
0.00234552
0.00238098
0.00241759
0.00245513
0.00249331
0.00253177
0.00257007
0.0026077
0.00264407
0.00267854
0.00271041
0.00273894
0.0027634
0.00278308
0.00279735
0.00280566
0.00280763
0.00280301
0.00279175
0.00277396
0.00274997
0.00272021
0.00268529
0.00264588
0.00260271
0.00255653
0.00250809
0.0024581
0.00240732
0.00235622
0.00230558
0.00225547
0.00220547
0.00215533
0.00210518
0.00205582
0.00200776
0.00196126
0.00191643
0.0018733
0.00183186
0.00179207
0.00175388
0.00171721
0.001682
0.00164817
0.00161565
0.00158436
0.00155424
0.00152521
0.00149721
0.00147018
0.00144406
0.0014188
0.00139434
0.00137064
0.00134765
0.00132533
0.00130365
0.00128256
0.00126204
0.00124206
0.00122259
0.0012036
0.00118507
0.00116698
0.00114931
0.00113204
0.00111516
0.00109865
0.0010825
0.0010667
0.00105123
0.00103609
0.00102126
0.00100673
0.000992499
0.00097855
0.000964875
0.000951463
0.000938302
0.00092538
0.000912682
0.00090019
0.000887886
0.000875741
0.000863723
0.000851782
0.000839849
0.000827782
0.000814953
0.000800337
0.000781777
0.0007546
1.89897e-05
0.000153413
0.00027306
0.000351606
0.000404252
0.000443648
0.000477837
0.000511193
0.000545652
0.000581823
0.000619727
0.000659185
0.000699977
0.000741899
0.000784774
0.000828449
0.000872788
0.000917671
0.000962989
0.00100864
0.00105454
0.00110059
0.00114672
0.00119285
0.00123891
0.00128483
0.00133056
0.00137603
0.00142119
0.00146599
0.00151037
0.00155431
0.00159774
0.00164064
0.00168297
0.00172469
0.00176577
0.00180619
0.00184591
0.00188492
0.0019232
0.00196072
0.00199747
0.00203343
0.0020686
0.00210296
0.00213651
0.00216925
0.00220117
0.00223227
0.00226257
0.00229207
0.00232078
0.00234873
0.00237592
0.0024024
0.00242818
0.00245331
0.00247782
0.00250178
0.00252522
0.00254822
0.00257084
0.00259315
0.00261525
0.00263723
0.00265917
0.00268119
0.0027034
0.00272591
0.00274884
0.00277233
0.0027965
0.00282148
0.0028474
0.00287439
0.00290256
0.00293203
0.0029629
0.00299525
0.00302918
0.00306476
0.00310141
0.00313963
0.00317968
0.00322167
0.00326556
0.00331123
0.00335849
0.00340706
0.00345657
0.00350654
0.00355642
0.0036055
0.00365302
0.00369806
0.00373968
0.00377684
0.00380853
0.00383374
0.00385158
0.00386126
0.00386224
0.00385417
0.00383697
0.00381084
0.0037762
0.00373373
0.00368425
0.00362873
0.00356819
0.0035037
0.00343631
0.00336699
0.0032968
0.00322668
0.00315707
0.00308826
0.00302023
0.00295305
0.0028869
0.00282221
0.00275935
0.00269853
0.00263985
0.00258335
0.00252902
0.0024768
0.00242662
0.00237839
0.00233204
0.00228747
0.00224458
0.00220329
0.00216349
0.00212512
0.00208807
0.00205229
0.00201768
0.00198419
0.00195175
0.00192029
0.00188977
0.00186012
0.00183131
0.00180328
0.001776
0.00174942
0.00172352
0.00169825
0.0016736
0.00164953
0.00162602
0.00160304
0.00158058
0.00155861
0.00153713
0.0015161
0.00149553
0.00147539
0.00145566
0.00143635
0.00141743
0.00139889
0.00138071
0.00136289
0.00134541
0.00132825
0.00131139
0.00129482
0.0012785
0.00126242
0.00124652
0.00123076
0.00121506
0.00119927
0.00118292
0.00116487
0.00114345
0.00111607
2.11841e-05
0.000173314
0.000319858
0.000421409
0.000492583
0.000546898
0.000593316
0.000637095
0.000680959
0.000726098
0.000772892
0.000821342
0.000871306
0.000922594
0.000975019
0.00102841
0.0010826
0.00113746
0.00119285
0.00124866
0.00130478
0.00136111
0.00141756
0.00147404
0.00153048
0.00158679
0.00164291
0.00169877
0.0017543
0.00180946
0.00186418
0.0019184
0.00197209
0.0020252
0.00207767
0.00212947
0.00218057
0.00223092
0.0022805
0.00232927
0.0023772
0.00242427
0.00247046
0.00251574
0.0025601
0.00260352
0.00264599
0.0026875
0.00272803
0.00276759
0.00280618
0.00284379
0.00288043
0.00291611
0.00295084
0.00298464
0.00301754
0.00304955
0.00308073
0.00311109
0.0031407
0.00316961
0.00319787
0.00322556
0.00325276
0.00327954
0.00330601
0.00333227
0.00335843
0.0033846
0.00341093
0.00343753
0.00346455
0.00349215
0.00352045
0.00354963
0.00357983
0.00361119
0.00364386
0.00367797
0.00371363
0.00375096
0.00378975
0.00383045
0.00387329
0.00391838
0.00396572
0.00401522
0.00406674
0.00412001
0.00417469
0.0042303
0.00428623
0.00434174
0.00439593
0.00444779
0.00449616
0.0045398
0.00457744
0.00460779
0.00462968
0.00464208
0.00464419
0.00463551
0.00461586
0.00458542
0.00454468
0.00449443
0.00443568
0.00436961
0.00429748
0.00422063
0.00414028
0.00405795
0.00397468
0.00389136
0.00380863
0.00372691
0.00364648
0.00356754
0.00349031
0.00341506
0.00334204
0.00327139
0.00320321
0.00313751
0.00307427
0.00301343
0.0029549
0.00289861
0.00284444
0.0027923
0.00274208
0.00269368
0.00264699
0.00260193
0.0025584
0.00251631
0.00247558
0.00243613
0.0023979
0.0023608
0.00232479
0.0022898
0.00225577
0.00222266
0.00219042
0.002159
0.00212838
0.0020985
0.00206935
0.00204088
0.00201306
0.00198589
0.00195932
0.00193334
0.00190792
0.00188306
0.00185873
0.00183491
0.0018116
0.00178876
0.0017664
0.00174449
0.00172302
0.00170197
0.00168133
0.00166107
0.0016412
0.00162167
0.00160246
0.00158356
0.00156492
0.00154651
0.00152825
0.00151006
0.0014916
0.00147184
0.00144976
0.0014243
2.28134e-05
0.000186501
0.000354628
0.000476416
0.000564582
0.000632848
0.000690737
0.000744152
0.000796437
0.000849293
0.000903459
0.000959162
0.00101638
0.00107499
0.00113483
0.00119572
0.00125751
0.00132005
0.0013832
0.00144683
0.00151084
0.00157512
0.00163957
0.00170409
0.00176861
0.00183305
0.00189732
0.00196135
0.00202508
0.00208845
0.00215139
0.00221384
0.00227574
0.00233706
0.00239772
0.0024577
0.00251694
0.00257539
0.00263303
0.00268981
0.0027457
0.00280066
0.00285467
0.00290769
0.0029597
0.00301068
0.0030606
0.00310945
0.00315721
0.00320386
0.0032494
0.00329381
0.00333709
0.00337924
0.00342026
0.00346016
0.00349894
0.00353661
0.00357321
0.00360875
0.00364326
0.00367679
0.00370937
0.00374107
0.00377194
0.00380204
0.00383147
0.00386031
0.00388866
0.00391663
0.00394433
0.00397189
0.00399946
0.00402718
0.00405521
0.00408371
0.00411286
0.00414282
0.00417378
0.0042059
0.00423934
0.00427425
0.00431075
0.00434926
0.00439005
0.00443327
0.00447903
0.00452735
0.0045782
0.00463142
0.00468679
0.00474391
0.00480225
0.00486112
0.00491963
0.0049767
0.00503105
0.00508127
0.00512582
0.00516312
0.00519162
0.00520994
0.00521692
0.00521177
0.00519409
0.00516393
0.00512176
0.00506843
0.00500509
0.00493314
0.00485396
0.00476942
0.00468102
0.0045902
0.00449816
0.00440592
0.00431424
0.0042237
0.00413472
0.0040476
0.00396258
0.00387989
0.0037997
0.00372212
0.00364722
0.003575
0.00350543
0.00343843
0.00337393
0.00331183
0.00325202
0.00319438
0.00313882
0.00308523
0.00303348
0.0029835
0.00293517
0.0028884
0.00284312
0.00279923
0.00275666
0.00271535
0.00267521
0.00263619
0.00259824
0.00256129
0.0025253
0.00249023
0.00245602
0.00242265
0.00239008
0.00235827
0.0023272
0.00229683
0.00226714
0.00223811
0.00220972
0.00218194
0.00215476
0.00212815
0.00210211
0.00207661
0.00205163
0.00202717
0.0020032
0.00197972
0.00195669
0.00193411
0.00191196
0.00189022
0.00186886
0.00184788
0.00182725
0.00180693
0.0017869
0.00176708
0.00174729
0.00172673
0.0017048
0.00168127
2.40193e-05
0.000194258
0.000378682
0.000517412
0.000620516
0.000701362
0.0007697
0.000831849
0.000891607
0.000951091
0.00101137
0.0010729
0.00113582
0.00120009
0.00126559
0.00133219
0.00139973
0.00146809
0.00153711
0.00160668
0.00167669
0.00174703
0.0018176
0.0018883
0.00195905
0.00202978
0.00210039
0.00217081
0.00224098
0.00231082
0.00238027
0.00244926
0.00251774
0.00258564
0.00265291
0.00271949
0.00278534
0.00285041
0.00291464
0.002978
0.00304043
0.00310191
0.00316238
0.00322182
0.0032802
0.00333747
0.0033936
0.00344858
0.00350236
0.00355494
0.00360627
0.00365635
0.00370516
0.00375268
0.00379889
0.00384379
0.00388737
0.00392963
0.00397057
0.00401019
0.00404851
0.00408554
0.00412131
0.00415585
0.00418919
0.00422138
0.00425248
0.00428255
0.00431167
0.00433992
0.00436741
0.00439425
0.00442056
0.00444647
0.00447215
0.00449775
0.00452345
0.00454945
0.00457594
0.00460313
0.00463125
0.00466043
0.0046911
0.00472369
0.00475853
0.0047959
0.00483604
0.00487917
0.0049254
0.00497481
0.00502734
0.00508283
0.00514093
0.0052011
0.00526257
0.00532431
0.00538499
0.00544304
0.00549667
0.00554391
0.00558275
0.00561129
0.00562784
0.00563113
0.00562039
0.00559539
0.00555649
0.00550455
0.00544077
0.00536697
0.00528494
0.00519657
0.0051036
0.00500761
0.00490999
0.00481187
0.00471418
0.0046176
0.00452268
0.00442979
0.0043392
0.00425114
0.00416575
0.00408314
0.00400333
0.00392633
0.0038521
0.00378055
0.00371161
0.00364518
0.00358113
0.00351937
0.00345977
0.00340223
0.00334664
0.00329289
0.00324088
0.00319052
0.00314172
0.0030944
0.00304847
0.00300387
0.00296052
0.00291836
0.00287734
0.00283739
0.00279847
0.00276052
0.00272351
0.0026874
0.00265215
0.00261771
0.00258408
0.0025512
0.00251906
0.00248764
0.0024569
0.00242683
0.00239741
0.00236862
0.00234043
0.00231284
0.00228582
0.00225935
0.00223343
0.00220803
0.00218314
0.00215875
0.00213483
0.00211137
0.00208837
0.00206579
0.00204365
0.00202191
0.00200059
0.00197964
0.00195896
0.001938
0.00191639
0.00189428
2.48682e-05
0.000197625
0.000393338
0.00054554
0.000661258
0.000753058
0.000830624
0.000900483
0.000966743
0.00103184
0.00109713
0.00116329
0.0012306
0.00129913
0.00136885
0.00143965
0.00151142
0.00158403
0.00165736
0.00173129
0.00180572
0.00188054
0.00195566
0.00203098
0.00210642
0.0021819
0.00225733
0.00233264
0.00240776
0.00248261
0.00255712
0.00263124
0.00270488
0.002778
0.00285052
0.00292239
0.00299356
0.00306395
0.00313353
0.00320223
0.00327001
0.00333682
0.00340261
0.00346734
0.00353097
0.00359345
0.00365473
0.00371479
0.00377359
0.00383108
0.00388723
0.00394202
0.0039954
0.00404734
0.00409782
0.00414682
0.00419429
0.00424023
0.00428462
0.00432743
0.00436866
0.0044083
0.00444635
0.0044828
0.00451768
0.00455099
0.00458277
0.00461305
0.00464187
0.0046693
0.0046954
0.00472025
0.00474397
0.00476666
0.00478845
0.0048095
0.00482999
0.00485009
0.00487003
0.00489003
0.00491036
0.00493126
0.00495328
0.00497691
0.00500259
0.00503076
0.00506185
0.00509626
0.00513438
0.00517654
0.005223
0.0052739
0.00532923
0.00538873
0.0054519
0.00551787
0.00558539
0.00565282
0.00571809
0.0057788
0.00583235
0.00587612
0.00590765
0.00592495
0.00592664
0.00591204
0.00588127
0.00583524
0.00577545
0.00570384
0.00562248
0.00553346
0.00543879
0.00534027
0.00523949
0.00513777
0.00503618
0.00493556
0.00483653
0.00473956
0.00464496
0.00455298
0.00446376
0.00437739
0.00429391
0.0042133
0.00413553
0.00406052
0.00398817
0.00391839
0.00385107
0.00378608
0.00372332
0.00366268
0.00360405
0.00354731
0.00349238
0.00343915
0.00338754
0.00333746
0.00328883
0.00324158
0.00319564
0.00315094
0.00310743
0.00306505
0.00302374
0.00298347
0.00294418
0.00290584
0.0028684
0.00283184
0.00279611
0.0027612
0.00272707
0.0026937
0.00266106
0.00262913
0.00259789
0.00256731
0.00253739
0.0025081
0.00247942
0.00245134
0.00242384
0.00239689
0.0023705
0.00234464
0.0023193
0.00229447
0.00227015
0.00224632
0.00222298
0.00220015
0.00217783
0.00215603
0.0021347
0.00211351
0.00209214
0.0020709
2.54111e-05
0.000197451
0.000399892
0.000562126
0.000688041
0.000789051
0.000874515
0.000950987
0.00102276
0.0010925
0.00116179
0.00123151
0.00130208
0.00137369
0.00144638
0.0015201
0.00159478
0.00167031
0.0017466
0.00182354
0.00190102
0.00197896
0.00205726
0.00213584
0.00221462
0.0022935
0.00237242
0.0024513
0.00253006
0.00260863
0.00268694
0.00276492
0.00284249
0.0029196
0.00299618
0.00307216
0.00314747
0.00322206
0.00329587
0.00336883
0.00344089
0.003512
0.00358209
0.00365111
0.00371902
0.00378575
0.00385127
0.00391551
0.00397843
0.00403997
0.0041001
0.00415877
0.00421592
0.00427151
0.00432549
0.00437782
0.00442846
0.00447737
0.00452449
0.0045698
0.00461325
0.00465482
0.00469446
0.00473216
0.0047679
0.00480165
0.00483342
0.00486319
0.00489099
0.00491683
0.00494075
0.00496279
0.00498301
0.00500151
0.00501839
0.00503376
0.00504778
0.00506063
0.00507251
0.00508366
0.00509436
0.00510494
0.00511602
0.00512817
0.00514196
0.00515798
0.00517685
0.00519922
0.00522578
0.00525719
0.00529409
0.00533707
0.00538657
0.00544282
0.00550574
0.00557487
0.00564918
0.00572709
0.00580637
0.00588414
0.00595705
0.00602159
0.00607414
0.00611172
0.00613201
0.00613364
0.00611654
0.00608155
0.00603026
0.00596476
0.00588743
0.00580068
0.00570684
0.00560804
0.00550611
0.0054026
0.00529878
0.00519563
0.00509389
0.00499411
0.00489668
0.00480185
0.0047098
0.00462063
0.00453438
0.00445102
0.00437052
0.00429281
0.0042178
0.00414538
0.00407545
0.00400789
0.00394259
0.00387944
0.00381833
0.00375915
0.00370182
0.00364623
0.0035923
0.00353993
0.00348906
0.00343961
0.00339151
0.00334469
0.0032991
0.00325468
0.00321139
0.00316916
0.00312796
0.00308774
0.00304848
0.00301012
0.00297265
0.00293603
0.00290023
0.00286523
0.00283099
0.00279751
0.00276474
0.00273269
0.00270131
0.00267061
0.00264055
0.00261111
0.00258229
0.00255407
0.00252643
0.00249935
0.00247284
0.00244688
0.00242146
0.0023966
0.00237229
0.00234857
0.00232545
0.00230296
0.00228111
0.00225973
0.00223842
0.00221761
2.56904e-05
0.00019446
0.000399603
0.000568582
0.000702296
0.000810749
0.000902751
0.000984725
0.00106103
0.00113449
0.00120685
0.00127916
0.00135198
0.00142562
0.00150019
0.00157571
0.00165214
0.00172942
0.00180747
0.0018862
0.00196552
0.00204536
0.00212562
0.00220623
0.00228711
0.00236819
0.00244938
0.00253062
0.00261182
0.00269292
0.00277385
0.00285453
0.00293489
0.00301487
0.00309439
0.00317338
0.00325178
0.00332952
0.00340653
0.00348275
0.00355811
0.00363255
0.00370601
0.00377842
0.00384972
0.00391986
0.00398876
0.00405637
0.00412263
0.00418748
0.00425085
0.00431269
0.00437293
0.0044315
0.00448836
0.00454342
0.00459664
0.00464794
0.00469726
0.00474454
0.00478971
0.00483272
0.0048735
0.004912
0.00494816
0.00498193
0.00501326
0.00504212
0.00506848
0.00509231
0.00511361
0.00513238
0.00514863
0.00516241
0.00517377
0.0051828
0.00518961
0.00519435
0.00519719
0.00519836
0.00519813
0.00519686
0.00519522
0.00519385
0.00519341
0.00519464
0.00519835
0.00520544
0.00521688
0.00523374
0.00525711
0.00528812
0.00532782
0.00537711
0.00543662
0.00550652
0.00558633
0.00567478
0.00576967
0.00586766
0.00596454
0.0060558
0.00613603
0.00620078
0.00624665
0.00627143
0.00627439
0.00625608
0.00621811
0.00616281
0.00609293
0.00601132
0.00592075
0.00582372
0.00572244
0.00561874
0.00551411
0.0054097
0.00530641
0.00520488
0.00510557
0.00500878
0.00491473
0.00482353
0.00473521
0.00464978
0.0045672
0.0044874
0.00441029
0.00433578
0.00426375
0.00419411
0.00412673
0.00406152
0.00399837
0.00393717
0.00387783
0.00382025
0.00376436
0.00371006
0.00365729
0.00360596
0.00355602
0.00350739
0.00346002
0.00341386
0.00336885
0.00332494
0.0032821
0.00324028
0.00319944
0.00315955
0.00312058
0.00308249
0.00304525
0.00300885
0.00297325
0.00293843
0.00290436
0.00287103
0.00283842
0.00280651
0.00277527
0.00274468
0.00271474
0.00268543
0.00265673
0.00262862
0.00260112
0.0025742
0.00254786
0.00252213
0.00249701
0.00247253
0.00244872
0.00242565
0.00240332
0.00238167
0.00236032
0.00233963
2.57404e-05
0.000189293
0.000393676
0.000566351
0.000705548
0.000819719
0.000916931
0.00100333
0.00108323
0.00115953
0.00123411
0.00130814
0.00138232
0.00145705
0.00153253
0.00160884
0.00168599
0.00176394
0.00184266
0.00192207
0.00200211
0.00208271
0.00216379
0.00224529
0.00232713
0.00240924
0.00249156
0.002574
0.00265651
0.00273901
0.00282144
0.00290371
0.00298576
0.00306752
0.00314891
0.00322987
0.00331033
0.0033902
0.00346943
0.00354795
0.00362567
0.00370253
0.00377847
0.00385341
0.00392728
0.00400001
0.00407153
0.00414177
0.00421065
0.00427811
0.00434406
0.00440844
0.00447117
0.00453216
0.00459134
0.00464864
0.00470395
0.0047572
0.00480831
0.00485718
0.00490373
0.00494786
0.00498949
0.00502853
0.00506488
0.00509847
0.0051292
0.00515699
0.00518177
0.00520347
0.00522204
0.00523742
0.00524957
0.0052585
0.00526419
0.00526667
0.00526601
0.00526229
0.00525564
0.00524625
0.00523434
0.00522027
0.0052047
0.00518831
0.00517183
0.00515609
0.00514204
0.0051308
0.00512363
0.00512195
0.00512737
0.00514161
0.00516646
0.00520372
0.00525498
0.00532147
0.0054036
0.00550085
0.00561152
0.00573201
0.0058569
0.00598017
0.00609502
0.00619501
0.00627482
0.00633075
0.00636103
0.00636574
0.00634645
0.0063058
0.00624701
0.00617353
0.00608866
0.00599546
0.00589656
0.00579415
0.00569
0.00558551
0.0054817
0.00537937
0.00527904
0.0051811
0.00508578
0.00499321
0.00490346
0.00481655
0.00473244
0.00465107
0.00457235
0.0044962
0.00442252
0.0043512
0.00428214
0.00421524
0.00415039
0.00408749
0.00402646
0.00396721
0.00390965
0.0038537
0.00379929
0.00374634
0.0036948
0.0036446
0.00359569
0.00354801
0.0035015
0.00345614
0.00341186
0.00336863
0.00332642
0.00328519
0.0032449
0.00320553
0.00316704
0.00312942
0.00309263
0.00305664
0.00302145
0.00298701
0.00295333
0.00292036
0.0028881
0.00285652
0.00282561
0.00279535
0.00276574
0.00273675
0.00270839
0.00268064
0.00265352
0.00262704
0.00260121
0.00257608
0.00255168
0.00252807
0.00250528
0.00248328
0.00246179
0.002441
2.55876e-05
0.00018251
0.000383239
0.000556843
0.000699345
0.000817586
0.000918748
0.00100856
0.00109118
0.00116954
0.00124557
0.00132055
0.00139529
0.00147028
0.00154578
0.00162196
0.00169887
0.00177652
0.00185489
0.00193394
0.00201363
0.00209391
0.00217471
0.00225598
0.00233766
0.00241969
0.002502
0.00258453
0.00266722
0.00275
0.00283281
0.00291557
0.00299822
0.00308068
0.0031629
0.00324478
0.00332627
0.00340728
0.00348775
0.0035676
0.00364676
0.00372515
0.00380269
0.0038793
0.00395492
0.00402946
0.00410284
0.00417497
0.00424579
0.0043152
0.00438311
0.00444944
0.0045141
0.004577
0.00463803
0.0046971
0.00475411
0.00480896
0.00486152
0.00491171
0.00495938
0.00500445
0.00504677
0.00508623
0.00512271
0.00515608
0.00518621