/*--------------------------------*- C++ -*----------------------------------*\
| =========                 |                                                 |
| \\      /  F ield         | OpenFOAM: The Open Source CFD Toolbox           |
|  \\    /   O peration     | Version:  2.2.x                                 |
|   \\  /    A nd           | Web:      www.OpenFOAM.org                      |
|    \\/     M anipulation  |                                                 |
\*---------------------------------------------------------------------------*/
FoamFile
{
    version     2.0;
    format      ascii;
    class       volScalarField;
    location    "250";
    object      p;
}
// * * * * * * * * * * * * * * * * * * * * * * * * * * * * * * * * * * * * * //

dimensions      [0 2 -2 0 0 0 0];

internalField   nonuniform List<scalar> 
12225
(
-1.92498
-4.62881
-5.47436
-5.71035
-5.86971
-6.00504
-6.11176
-6.1978
-6.27151
-6.337
-6.39607
-6.44974
-6.49869
-6.54323
-6.58317
-6.61688
-6.63989
-6.56592
-5.71349
-6.06741
-6.17608
-6.12715
-6.12939
-6.17239
-6.22367
-6.27485
-6.32573
-6.37583
-6.42426
-6.47045
-6.51404
-6.55473
-6.59207
-6.62545
-6.65847
-6.73511
-5.56069
-5.40476
-5.6044
-5.73556
-5.85428
-5.97411
-6.07964
-6.16929
-6.24745
-6.31713
-6.37982
-6.43654
-6.48805
-6.53489
-6.57747
-6.61667
-6.65698
-6.7179
-5.47637
-5.46436
-5.73474
-5.89956
-6.00676
-6.10207
-6.18452
-6.25453
-6.31633
-6.37265
-6.4246
-6.47276
-6.51752
-6.55918
-6.59811
-6.63538
-6.67441
-6.72481
-5.51298
-5.56112
-5.77123
-5.90439
-5.99255
-6.07608
-6.15404
-6.22392
-6.28755
-6.34647
-6.40131
-6.45236
-6.4999
-6.54425
-6.58587
-6.62576
-6.66599
-6.70978
-5.58746
-5.63703
-5.79529
-5.91546
-6.00385
-6.08723
-6.16537
-6.23577
-6.29961
-6.35838
-6.41279
-6.46329
-6.51029
-6.55417
-6.59543
-6.63485
-6.6735
-6.71204
-5.65352
-5.69471
-5.81954
-5.93008
-6.01691
-6.09715
-6.17222
-6.24052
-6.30287
-6.3605
-6.4141
-6.46409
-6.51081
-6.55463
-6.59593
-6.63519
-6.6728
-6.70823
-5.70556
-5.7415
-5.84585
-5.94669
-6.02997
-6.10688
-6.17925
-6.2459
-6.30728
-6.36429
-6.4175
-6.46727
-6.51391
-6.55773
-6.59903
-6.6381
-6.67506
-6.70912
-5.74987
-5.78214
-5.87082
-5.96253
-6.04196
-6.11582
-6.18576
-6.25086
-6.31125
-6.3676
-6.42036
-6.46985
-6.51633
-6.56006
-6.60127
-6.64014
-6.67668
-6.71005
-5.79621
-5.82477
-5.89902
-5.98115
-6.05602
-6.12646
-6.19369
-6.25696
-6.31616
-6.37169
-6.4239
-6.47304
-6.51933
-6.56297
-6.60413
-6.6429
-6.67924
-6.71246
-5.84385
-5.86862
-5.93026
-6.0028
-6.07241
-6.13903
-6.20324
-6.26439
-6.32216
-6.37671
-6.42827
-6.47701
-6.52308
-6.56663
-6.60778
-6.64657
-6.68298
-6.71648
-5.89192
-5.91303
-5.96404
-6.02735
-6.0912
-6.15366
-6.21461
-6.27338
-6.32951
-6.38295
-6.43376
-6.48203
-6.52787
-6.57135
-6.61256
-6.65154
-6.68829
-6.72243
-5.93943
-5.9572
-5.99946
-6.05428
-6.11217
-6.17026
-6.22781
-6.28404
-6.33837
-6.39057
-6.44056
-6.48834
-6.53394
-6.57741
-6.61879
-6.65813
-6.69546
-6.73052
-5.9851
-6.00001
-6.03526
-6.08265
-6.13477
-6.1885
-6.24263
-6.29627
-6.34874
-6.39964
-6.44878
-6.49608
-6.54149
-6.58503
-6.62671
-6.66658
-6.70467
-6.74081
-6.0273
-6.03991
-6.06973
-6.11098
-6.15791
-6.20757
-6.25849
-6.30967
-6.36034
-6.41001
-6.45837
-6.50525
-6.55057
-6.59428
-6.63638
-6.67691
-6.7159
-6.7532
-6.06381
-6.0747
-6.10057
-6.13714
-6.17986
-6.22609
-6.27429
-6.32337
-6.37252
-6.42116
-6.46891
-6.51554
-6.5609
-6.60493
-6.64758
-6.68887
-6.72881
-6.76725
-6.09145
-6.10122
-6.12456
-6.15807
-6.19795
-6.24181
-6.28814
-6.33583
-6.38401
-6.43207
-6.47957
-6.52625
-6.5719
-6.61643
-6.65978
-6.70192
-6.74285
-6.7824
-6.1045
-6.11383
-6.13626
-6.16869
-6.20762
-6.25074
-6.29656
-6.34396
-6.39207
-6.44026
-6.48808
-6.53522
-6.58146
-6.62669
-6.67083
-6.71382
-6.75564
-6.79611
-6.10135
-6.11087
-6.13385
-6.16715
-6.20704
-6.25111
-6.29783
-6.34611
-6.39509
-6.44415
-6.49284
-6.54084
-6.58797
-6.63408
-6.6791
-6.72296
-6.76564
-6.80694
-6.08585
-6.09593
-6.12058
-6.15631
-6.19868
-6.24494
-6.29355
-6.34351
-6.39398
-6.44436
-6.49423
-6.5433
-6.5914
-6.6384
-6.68421
-6.72879
-6.77211
-6.81394
-6.06131
-6.07205
-6.09933
-6.13899
-6.18513
-6.23447
-6.28569
-6.33789
-6.39029
-6.44232
-6.49362
-6.54395
-6.59316
-6.64115
-6.68784
-6.73321
-6.77723
-6.8197
-6.03023
-6.0412
-6.07214
-6.11745
-6.16838
-6.22131
-6.27548
-6.33019
-6.38466
-6.43837
-6.49106
-6.54256
-6.59276
-6.64155
-6.68891
-6.7348
-6.77919
-6.82185
-5.99481
-6.00456
-6.04062
-6.09383
-6.1505
-6.20736
-6.26483
-6.32236
-6.37912
-6.43473
-6.48903
-6.54191
-6.59328
-6.64308
-6.69128
-6.73788
-6.78287
-6.82609
-5.95711
-5.96252
-6.00574
-6.06885
-6.13122
-6.19183
-6.25249
-6.31245
-6.37094
-6.42782
-6.48315
-6.53688
-6.58897
-6.63937
-6.68807
-6.73502
-6.78016
-6.8231
-5.91851
-5.91552
-5.97279
-6.04804
-6.11501
-6.17963
-6.24471
-6.30835
-6.36962
-6.42867
-6.48572
-6.5408
-6.59393
-6.64514
-6.69445
-6.74184
-6.78731
-6.83066
-5.87647
-5.84795
-5.93526
-6.02617
-6.09229
-6.15529
-6.22007
-6.28369
-6.34524
-6.40502
-6.46314
-6.51952
-6.57408
-6.62678
-6.67759
-6.7264
-6.77298
-6.81645
-5.87102
-5.75697
-5.89838
-6.03159
-6.11802
-6.19313
-6.2637
-6.32844
-6.38866
-6.446
-6.50118
-6.55446
-6.60598
-6.65585
-6.70412
-6.75075
-6.79556
-6.83805
-5.96872
-5.63828
-5.71569
-5.82044
-5.91514
-6.01508
-6.11114
-6.19846
-6.27839
-6.35274
-6.4224
-6.4879
-6.54974
-6.60835
-6.6641
-6.71723
-6.76768
-6.81455
-6.26766
-6.33348
-6.36779
-6.29698
-6.2668
-6.28305
-6.31716
-6.35774
-6.40265
-6.45062
-6.50019
-6.55025
-6.60013
-6.64946
-6.69803
-6.74585
-6.79293
-6.84026
-2.57337
-4.76795
-5.56753
-5.79
-5.92779
-6.05117
-6.1538
-6.23971
-6.31586
-6.38595
-6.45147
-6.5132
-6.57174
-6.62759
-6.68119
-6.73303
-6.78379
-6.8381
-7.51846
-7.52145
-7.52824
-7.53535
-7.54156
-7.54818
-7.55848
-7.57433
-7.59556
-7.62254
-7.65558
-7.69477
-7.74015
-7.79165
-7.84911
-7.91229
-7.98091
-8.05461
-8.13301
-8.21573
-8.30234
-8.39244
-8.4856
-8.58144
-8.67956
-8.77959
-8.8812
-8.98404
-9.08783
-9.19227
-9.29711
-9.40211
-9.50707
-9.6118
-9.71612
-9.81989
-9.92297
-10.0252
-10.1266
-10.2269
-10.3262
-10.4243
-10.5211
-10.6166
-10.7107
-10.8033
-10.8945
-10.9841
-11.072
-11.1582
-11.2425
-11.3249
-11.4053
-11.4835
-11.5594
-11.6328
-11.7035
-11.7713
-11.836
-11.8973
-11.9548
-12.0081
-12.057
-12.1009
-12.1392
-12.1714
-12.1969
-12.2149
-12.2246
-12.2251
-12.2153
-12.1941
-12.1604
-12.1127
-12.0496
-11.9694
-11.8703
-11.7504
-11.6077
-11.44
-11.2452
-11.0204
-10.7626
-10.4687
-10.1359
-9.7614
-9.34274
-8.87747
-8.36345
-7.79891
-7.18264
-6.51409
-5.79353
-5.0222
-4.20246
-3.33785
-2.43321
-1.49462
-0.529387
0.454132
1.44677
2.43883
3.42048
4.38214
5.31487
6.21072
7.06301
7.86653
8.61763
9.31423
9.95565
10.5425
11.0765
11.56
11.9962
12.3885
12.7408
13.056
13.3397
13.5988
13.8328
14.0408
14.2258
14.3909
14.5386
14.6713
14.7908
14.8988
14.9969
15.0861
15.1678
15.2427
15.3117
15.3756
15.4349
15.4901
15.5418
15.5902
15.6357
15.6787
15.7193
15.7578
15.7944
15.8292
15.8623
15.8939
15.9241
15.953
15.9805
16.0068
16.032
16.0561
16.0791
16.101
16.1219
16.1418
16.1606
16.1786
16.1955
16.2116
16.2267
16.2409
16.2542
16.2667
16.2783
16.2891
16.2991
16.3083
16.317
16.3251
16.333
16.3409
16.3492
16.3586
16.3701
16.3854
16.4074
16.4419
16.5043
16.6053
-7.50417
-7.51103
-7.51882
-7.52453
-7.52682
-7.5279
-7.53158
-7.54114
-7.55716
-7.57971
-7.60885
-7.64462
-7.68695
-7.73574
-7.79077
-7.85178
-7.91846
-7.99043
-8.06729
-8.14864
-8.23403
-8.32304
-8.41525
-8.51025
-8.60762
-8.70701
-8.80805
-8.9104
-9.01375
-9.11783
-9.22235
-9.32709
-9.43183
-9.53636
-9.64053
-9.74417
-9.84715
-9.94933
-10.0506
-10.1509
-10.2501
-10.3482
-10.445
-10.5405
-10.6347
-10.7274
-10.8186
-10.9083
-10.9964
-11.0827
-11.1673
-11.2499
-11.3306
-11.4092
-11.4856
-11.5595
-11.6308
-11.6994
-11.7649
-11.8271
-11.8857
-11.9403
-11.9906
-12.0361
-12.0762
-12.1105
-12.1383
-12.1588
-12.1714
-12.1751
-12.1689
-12.1517
-12.1224
-12.0797
-12.0221
-11.948
-11.8557
-11.7432
-11.6089
-11.4507
-11.2663
-11.0529
-10.807
-10.5259
-10.2071
-9.84792
-9.44578
-8.99824
-8.50313
-7.95862
-7.36338
-6.71668
-6.01856
-5.26997
-4.47288
-3.63041
-2.74689
-1.82791
-0.880221
0.0883429
1.06908
2.05268
3.02958
3.99033
4.92595
5.82834
6.69051
7.50684
8.27321
8.98699
9.64697
10.2532
10.8068
11.3097
11.7649
12.1756
12.5474
12.8831
13.1841
13.4544
13.6965
13.9129
14.1062
14.2794
14.4349
14.5749
14.7012
14.8156
14.9195
15.0142
15.1008
15.1803
15.2535
15.3212
15.384
15.4425
15.4971
15.5483
15.5964
15.6416
15.6844
15.7249
15.7633
15.7998
15.8345
15.8675
15.8991
15.9292
15.9579
15.9853
16.0115
16.0365
16.0604
16.0832
16.1049
16.1255
16.1451
16.1637
16.1813
16.1979
16.2136
16.2283
16.2421
16.2551
16.2671
16.2783
16.2887
16.2984
16.3074
16.3159
16.3242
16.3324
16.3411
16.3509
16.3629
16.3787
16.4014
16.4357
16.4959
16.5742
-7.4585
-7.47491
-7.4922
-7.50094
-7.50456
-7.50807
-7.51462
-7.52603
-7.54297
-7.56579
-7.5947
-7.62979
-7.67109
-7.71851
-7.77192
-7.83107
-7.8957
-7.96548
-8.04005
-8.11901
-8.20198
-8.28856
-8.37834
-8.47092
-8.56595
-8.66303
-8.76185
-8.86206
-8.96337
-9.06549
-9.16816
-9.27115
-9.37423
-9.47722
-9.57994
-9.68224
-9.78396
-9.885
-9.98522
-10.0845
-10.1829
-10.2801
-10.3762
-10.4711
-10.5647
-10.657
-10.7479
-10.8373
-10.9251
-11.0113
-11.0959
-11.1786
-11.2595
-11.3384
-11.4151
-11.4896
-11.5616
-11.6309
-11.6973
-11.7606
-11.8205
-11.8766
-11.9285
-11.9759
-12.0182
-12.0549
-12.0854
-12.109
-12.1249
-12.1324
-12.1304
-12.1179
-12.0939
-12.0569
-12.0057
-11.9387
-11.8542
-11.7504
-11.6258
-11.4784
-11.306
-11.1051
-10.8729
-10.6067
-10.3041
-9.96248
-9.57919
-9.15185
-8.67822
-8.1564
-7.58491
-6.96283
-6.28995
-5.56686
-4.79514
-3.97746
-3.11763
-2.22068
-1.29281
-0.34135
0.625485
1.59876
2.56918
3.5274
4.46442
5.37196
6.24272
7.07068
7.85122
8.58114
9.25858
9.88301
10.455
10.9765
11.4511
11.8827
12.2747
12.6284
12.9476
13.2364
13.4966
13.7298
13.9388
14.1263
14.2947
14.4463
14.5831
14.707
14.8194
14.9219
15.0155
15.1013
15.1802
15.2531
15.3207
15.3834
15.4419
15.4967
15.548
15.5962
15.6417
15.6847
15.7254
15.764
15.8007
15.8356
15.8688
15.9005
15.9307
15.9594
15.9869
16.0131
16.0381
16.0619
16.0846
16.1061
16.1265
16.1459
16.1643
16.1816
16.198
16.2133
16.2278
16.2413
16.2538
16.2655
16.2764
16.2865
16.2959
16.3048
16.3134
16.322
16.331
16.3411
16.3533
16.3691
16.3911
16.4226
16.4754
16.5251
-7.40141
-7.42668
-7.45654
-7.47454
-7.48532
-7.49515
-7.5071
-7.52276
-7.54302
-7.56839
-7.59919
-7.63557
-7.67759
-7.72523
-7.77836
-7.83683
-7.9004
-7.9688
-8.04172
-8.11882
-8.19976
-8.28416
-8.37166
-8.46191
-8.55455
-8.64925
-8.74568
-8.84354
-8.94254
-9.0424
-9.14289
-9.24378
-9.34485
-9.44591
-9.54681
-9.64737
-9.74747
-9.84698
-9.9458
-10.0438
-10.141
-10.2371
-10.3323
-10.4263
-10.5192
-10.6108
-10.7012
-10.7902
-10.8778
-10.9639
-11.0484
-11.1313
-11.2124
-11.2917
-11.369
-11.4442
-11.517
-11.5874
-11.6552
-11.7199
-11.7815
-11.8395
-11.8936
-11.9434
-11.9884
-12.0282
-12.0621
-12.0894
-12.1095
-12.1216
-12.1246
-12.1177
-12.0997
-12.0694
-12.0255
-11.9664
-11.8906
-11.7963
-11.682
-11.546
-11.3855
-11.1973
-10.9785
-10.7269
-10.4398
-10.1145
-9.74847
-9.33919
-8.88432
-8.38178
-7.8299
-7.22751
-6.57408
-5.86988
-5.11611
-4.31501
-3.47001
-2.58574
-1.66808
-0.724056
0.238291
1.21012
2.18209
3.14474
4.08883
5.00577
5.88788
6.72871
7.52312
8.26748
8.95949
9.59872
10.1861
10.7252
11.2184
11.6667
12.0737
12.4418
12.7745
13.0756
13.3472
13.5913
13.8106
14.0076
14.1848
14.3445
14.4887
14.6194
14.738
14.8461
14.9449
15.0355
15.1188
15.1956
15.2668
15.3329
15.3945
15.452
15.506
15.5566
15.6044
15.6494
15.692
15.7324
15.7707
15.8071
15.8418
15.8748
15.9062
15.9361
15.9647
15.9919
16.0179
16.0426
16.0661
16.0884
16.1097
16.1298
16.1488
16.1667
16.1837
16.1996
16.2145
16.2285
16.2415
16.2536
16.2649
16.2753
16.2851
16.2943
16.3031
16.3118
16.3209
16.3309
16.3427
16.3575
16.3775
16.404
16.4462
16.47
-7.35419
-7.38619
-7.42649
-7.45411
-7.47288
-7.4896
-7.5076
-7.52849
-7.55324
-7.58244
-7.61644
-7.65539
-7.69939
-7.74841
-7.80237
-7.86115
-7.92456
-7.99236
-8.0643
-8.14009
-8.21943
-8.302
-8.38747
-8.47554
-8.56589
-8.65822
-8.75222
-8.84763
-8.94417
-9.0416
-9.1397
-9.23825
-9.33705
-9.43593
-9.53473
-9.63331
-9.73152
-9.82927
-9.92643
-10.0229
-10.1187
-10.2136
-10.3076
-10.4006
-10.4926
-10.5836
-10.6733
-10.7619
-10.8492
-10.9352
-11.0198
-11.1029
-11.1844
-11.2642
-11.3422
-11.4183
-11.4923
-11.564
-11.6332
-11.6998
-11.7633
-11.8236
-11.8802
-11.9328
-11.981
-12.0242
-12.0619
-12.0934
-12.1181
-12.1352
-12.1437
-12.1428
-12.1312
-12.108
-12.0717
-12.0209
-11.954
-11.8694
-11.7657
-11.6409
-11.4921
-11.3161
-11.1105
-10.8727
-10.6001
-10.29
-9.93967
-9.54649
-9.10795
-8.62177
-8.08602
-7.49924
-6.86059
-6.16996
-5.42819
-4.63716
-3.79999
-2.92103
-2.00594
-1.06169
-0.0963279
0.881164
1.86119
2.83397
3.7898
4.71963
5.61521
6.46962
7.27732
8.03467
8.7397
9.3937
9.99756
10.5517
11.0576
11.5177
11.935
12.3127
12.6539
12.9623
13.2405
13.4909
13.7162
13.919
14.1017
14.2666
14.4157
14.5509
14.6738
14.7858
14.8882
14.9822
15.0687
15.1485
15.2224
15.291
15.355
15.4147
15.4707
15.5232
15.5727
15.6194
15.6636
15.7054
15.7451
15.7828
15.8186
15.8527
15.8852
15.9162
15.9457
15.9738
16.0005
16.026
16.0503
16.0733
16.0952
16.1159
16.1355
16.154
16.1714
16.1878
16.2032
16.2176
16.231
16.2434
16.255
16.2657
16.2756
16.285
16.2938
16.3025
16.3114
16.3209
16.3318
16.3449
16.3618
16.3821
16.4129
16.4153
-7.33133
-7.36703
-7.41306
-7.44748
-7.47266
-7.4952
-7.51845
-7.54404
-7.57296
-7.60581
-7.64294
-7.68452
-7.73061
-7.7812
-7.83623
-7.89559
-7.9591
-8.02658
-8.0978
-8.17252
-8.25047
-8.33139
-8.41499
-8.501
-8.58914
-8.67914
-8.77073
-8.86368
-8.95773
-9.05268
-9.14831
-9.24443
-9.34087
-9.43746
-9.53405
-9.63052
-9.72674
-9.82261
-9.91803
-10.0129
-10.1072
-10.2008
-10.2936
-10.3856
-10.4767
-10.5669
-10.6562
-10.7444
-10.8315
-10.9175
-11.0022
-11.0856
-11.1677
-11.2483
-11.3273
-11.4045
-11.4799
-11.5532
-11.6244
-11.693
-11.759
-11.8219
-11.8815
-11.9374
-11.9892
-12.0364
-12.0784
-12.1147
-12.1446
-12.1672
-12.1818
-12.1874
-12.1829
-12.1673
-12.1392
-12.0971
-12.0396
-11.9651
-11.8721
-11.7586
-11.6216
-11.458
-11.2654
-11.0412
-10.7827
-10.4872
-10.1517
-9.77342
-9.34974
-8.87813
-8.35636
-7.78267
-7.15586
-6.47547
-5.74196
-4.9569
-4.12313
-3.24477
-2.32738
-1.37796
-0.404677
0.583203
1.57563
2.56235
3.53294
4.47775
5.38794
6.25632
7.07763
7.84954
8.57087
9.23996
9.85615
10.4208
10.936
11.4043
11.8289
12.213
12.56
12.8733
13.1559
13.4105
13.6398
13.8466
14.0331
14.2016
14.3542
14.4928
14.6188
14.7339
14.8392
14.9358
15.0248
15.107
15.1831
15.2539
15.3198
15.3814
15.4391
15.4933
15.5444
15.5925
15.6381
15.6812
15.7221
15.7609
15.7978
15.8329
15.8664
15.8982
15.9286
15.9575
15.985
16.0112
16.0362
16.0598
16.0823
16.1036
16.1237
16.1427
16.1606
16.1774
16.1932
16.2079
16.2217
16.2344
16.2462
16.2571
16.2672
16.2766
16.2854
16.2939
16.3023
16.3111
16.3206
16.3315
16.3448
16.3586
16.3786
16.3633
-7.3355
-7.37139
-7.41859
-7.45632
-7.48557
-7.51215
-7.53921
-7.56833
-7.60043
-7.63611
-7.67569
-7.71934
-7.7671
-7.81895
-7.87483
-7.93461
-7.99816
-8.06529
-8.13581
-8.20951
-8.28615
-8.3655
-8.44731
-8.53133
-8.61734
-8.70507
-8.79432
-8.88485
-8.97646
-9.06895
-9.16214
-9.25585
-9.34993
-9.44423
-9.53863
-9.633
-9.72723
-9.82123
-9.91492
-10.0082
-10.101
-10.1933
-10.285
-10.376
-10.4664
-10.556
-10.6448
-10.7328
-10.8198
-10.9059
-10.991
-11.075
-11.1579
-11.2394
-11.3196
-11.3983
-11.4754
-11.5507
-11.6241
-11.6952
-11.764
-11.83
-11.8931
-11.9528
-12.0087
-12.0604
-12.1073
-12.1488
-12.1844
-12.2132
-12.2344
-12.2471
-12.2503
-12.2428
-12.2234
-12.1906
-12.1428
-12.0787
-11.9967
-11.8947
-11.7696
-11.6186
-11.4391
-11.2284
-10.9838
-10.7023
-10.3809
-10.0168
-9.60692
-9.14856
-8.6392
-8.07675
-7.45967
-6.78712
-6.05919
-5.27715
-4.44359
-3.56247
-2.63924
-1.68106
-0.696328
0.305308
1.31308
2.31618
3.30328
4.26435
5.19047
6.07535
6.91477
7.70366
8.43873
9.11908
9.74488
10.3176
10.8396
11.3138
11.7434
12.1318
12.4826
12.7992
13.0847
13.3421
13.5743
13.7837
13.973
14.1443
14.2996
14.4407
14.5693
14.6868
14.7944
14.8933
14.9844
15.0687
15.1468
15.2194
15.2871
15.3504
15.4097
15.4654
15.5178
15.5673
15.6141
15.6584
15.7005
15.7404
15.7783
15.8144
15.8488
15.8815
15.9127
15.9424
15.9706
15.9975
16.0231
16.0474
16.0704
16.0923
16.1129
16.1324
16.1507
16.168
16.1841
16.1992
16.2132
16.2262
16.2382
16.2493
16.2595
16.2688
16.2775
16.2857
16.2935
16.3012
16.3092
16.3176
16.3268
16.3342
16.3445
16.3145
-7.36151
-7.39505
-7.43995
-7.478
-7.50901
-7.53777
-7.56707
-7.59833
-7.63242
-7.66986
-7.71096
-7.75586
-7.80458
-7.8571
-7.91333
-7.97316
-8.03644
-8.10301
-8.17268
-8.24526
-8.32054
-8.39832
-8.47836
-8.56046
-8.64441
-8.72998
-8.81697
-8.9052
-8.99447
-9.08462
-9.17548
-9.2669
-9.35875
-9.45089
-9.54321
-9.6356
-9.72797
-9.82023
-9.91231
-10.0041
-10.0956
-10.1868
-10.2775
-10.3677
-10.4575
-10.5466
-10.6352
-10.7231
-10.8103
-10.8968
-10.9825
-11.0673
-11.1511
-11.234
-11.3157
-11.3962
-11.4753
-11.553
-11.6289
-11.703
-11.7749
-11.8445
-11.9115
-11.9754
-12.0359
-12.0925
-12.1448
-12.1922
-12.234
-12.2695
-12.2979
-12.3183
-12.3296
-12.3308
-12.3205
-12.2974
-12.2599
-12.2065
-12.1357
-12.0453
-11.9324
-11.7941
-11.6276
-11.4303
-11.1992
-10.9314
-10.6236
-10.2728
-9.87583
-9.42958
-8.93129
-8.37852
-7.7694
-7.10271
-6.37813
-5.59666
-4.76073
-3.87413
-2.9422
-1.97251
-0.973809
0.0438457
1.06868
2.08973
3.09507
4.0754
5.02271
5.92759
6.78364
7.58642
8.33315
9.02298
9.65646
10.2353
10.7622
11.2402
11.6728
12.0638
12.4168
12.7353
13.0226
13.2818
13.5157
13.7271
13.9183
14.0916
14.2489
14.3921
14.5228
14.6424
14.752
14.8529
14.9459
15.032
15.1119
15.1862
15.2555
15.3204
15.3812
15.4383
15.4922
15.5429
15.591
15.6365
15.6796
15.7206
15.7595
15.7966
15.8318
15.8654
15.8974
15.9279
15.9569
15.9845
16.0107
16.0356
16.0592
16.0816
16.1027
16.1227
16.1415
16.1592
16.1757
16.1911
16.2054
16.2187
16.2309
16.242
16.2522
16.2615
16.27
16.2777
16.2848
16.2914
16.2976
16.3033
16.3084
16.3097
16.3114
16.2692
-7.40217
-7.43158
-7.47174
-7.5077
-7.53848
-7.56775
-7.59784
-7.62996
-7.66486
-7.70302
-7.74468
-7.78996
-7.83888
-7.89139
-7.9474
-8.0068
-8.06942
-8.13512
-8.20372
-8.27503
-8.34886
-8.42503
-8.50332
-8.58354
-8.66551
-8.74902
-8.83391
-8.91999
-9.0071
-9.0951
-9.18383
-9.27316
-9.36298
-9.45317
-9.54364
-9.63427
-9.725
-9.81575
-9.90644
-9.99703
-10.0875
-10.1777
-10.2676
-10.3573
-10.4466
-10.5356
-10.6242
-10.7123
-10.7999
-10.8871
-10.9736
-11.0595
-11.1447
-11.2291
-11.3127
-11.3952
-11.4768
-11.557
-11.636
-11.7133
-11.7889
-11.8624
-11.9336
-12.0022
-12.0678
-12.1299
-12.1881
-12.2417
-12.2903
-12.333
-12.369
-12.3975
-12.4175
-12.4277
-12.4271
-12.4141
-12.3872
-12.3448
-12.2853
-12.2066
-12.1061
-11.9804
-11.8269
-11.6427
-11.4248
-11.1701
-10.8753
-10.5371
-10.152
-9.71671
-9.22814
-8.68352
-8.08065
-7.41791
-6.69454
-5.91128
-5.07059
-4.17618
-3.23325
-2.25013
-1.23603
-0.200946
0.842437
1.88439
2.91346
3.91643
4.88368
5.80628
6.67751
7.49278
8.24951
8.94706
9.58629
10.1693
10.6991
11.1791
11.6131
12.0051
12.3589
12.6781
12.9662
13.2263
13.4613
13.6738
13.8664
14.0413
14.2003
14.3452
14.4776
14.599
14.7105
14.8131
14.908
14.9958
15.0774
15.1533
15.2243
15.2906
15.3529
15.4115
15.4666
15.5187
15.568
15.6147
15.6589
15.701
15.7409
15.7789
15.8151
15.8496
15.8824
15.9137
15.9434
15.9717
15.9986
16.0241
16.0484
16.0713
16.093
16.1134
16.1327
16.1507
16.1676
16.1834
16.198
16.2115
16.2239
16.2351
16.2453
16.2545
16.2627
16.2699
16.2762
16.2815
16.2858
16.2887
16.2897
16.2853
16.2795
16.2273
-7.4497
-7.47389
-7.50773
-7.53982
-7.56877
-7.59717
-7.62682
-7.6587
-7.69342
-7.73136
-7.77273
-7.81762
-7.86604
-7.91792
-7.97316
-8.03165
-8.09324
-8.15776
-8.22505
-8.29494
-8.36723
-8.44174
-8.5183
-8.59672
-8.67682
-8.75843
-8.84138
-8.92553
-9.01071
-9.0968
-9.18367
-9.2712
-9.35928
-9.44781
-9.53671
-9.62588
-9.71527
-9.8048
-9.89441
-9.98406
-10.0737
-10.1633
-10.2528
-10.3422
-10.4314
-10.5205
-10.6094
-10.698
-10.7863
-10.8744
-10.9621
-11.0493
-11.1362
-11.2225
-11.3082
-11.3932
-11.4774
-11.5607
-11.6429
-11.7239
-11.8034
-11.8812
-11.9571
-12.0308
-12.1018
-12.1697
-12.2342
-12.2945
-12.3502
-12.4005
-12.4446
-12.4817
-12.5106
-12.5304
-12.5396
-12.537
-12.5209
-12.4897
-12.4417
-12.3749
-12.2866
-12.1735
-12.0327
-11.8612
-11.6561
-11.4139
-11.1314
-10.8047
-10.4304
-10.0048
-9.5244
-8.98619
-8.3876
-7.72661
-7.00196
-6.21431
-5.36649
-4.46232
-3.50667
-2.50888
-1.47833
-0.42289
0.644312
1.70936
2.76044
3.78461
4.77091
5.70998
6.59481
7.42075
8.18543
8.88851
9.5313
10.1163
10.647
11.1272
11.561
11.9526
12.306
12.6249
12.9128
13.1731
13.4086
13.6219
13.8155
13.9915
14.1519
14.2983
14.4324
14.5554
14.6686
14.773
14.8696
14.9591
15.0424
15.12
15.1925
15.2604
15.3242
15.3842
15.4407
15.4941
15.5447
15.5926
15.638
15.6811
15.7221
15.7612
15.7983
15.8337
15.8674
15.8994
15.93
15.959
15.9866
16.0128
16.0376
16.0611
16.0833
16.1043
16.124
16.1425
16.1598
16.1759
16.1908
16.2046
16.2171
16.2285
16.2386
16.2477
16.2555
16.2621
16.2675
16.2715
16.2739
16.2739
16.2711
16.2614
16.249
16.1887
-7.49663
-7.5151
-7.54179
-7.56885
-7.59481
-7.62129
-7.64954
-7.6803
-7.71402
-7.75099
-7.79138
-7.83525
-7.88257
-7.9333
-7.98732
-8.04451
-8.10473
-8.16782
-8.23362
-8.30196
-8.37265
-8.44552
-8.52041
-8.59713
-8.67551
-8.75541
-8.83666
-8.91912
-9.00266
-9.08715
-9.17247
-9.25853
-9.34521
-9.43243
-9.52012
-9.60819
-9.69659
-9.78525
-9.87414
-9.9632
-10.0524
-10.1417
-10.2311
-10.3205
-10.41
-10.4995
-10.5889
-10.6784
-10.7677
-10.857
-10.9461
-11.0351
-11.1238
-11.2123
-11.3004
-11.3881
-11.4753
-11.5619
-11.6477
-11.7326
-11.8164
-11.8988
-11.9797
-12.0587
-12.1355
-12.2096
-12.2806
-12.348
-12.4111
-12.4694
-12.5218
-12.5677
-12.6059
-12.6354
-12.6548
-12.6628
-12.6577
-12.6378
-12.6013
-12.5463
-12.47
-12.3692
-12.2406
-12.0814
-11.8884
-11.658
-11.3866
-11.0704
-10.7055
-10.2879
-9.81377
-9.27971
-8.68286
-8.02093
-7.29216
-6.49744
-5.64043
-4.72538
-3.75551
-2.73881
-1.68721
-0.610585
0.478725
1.56641
2.63894
3.68291
4.68652
5.63996
6.53597
7.36997
8.13988
8.84579
9.48954
10.0742
10.6036
11.0821
11.5141
11.9038
12.2556
12.5734
12.8605
13.1204
13.3558
13.5695
13.7639
13.9409
14.1025
14.2503
14.3859
14.5106
14.6255
14.7316
14.8299
14.9212
15.0062
15.0855
15.1597
15.2292
15.2945
15.356
15.414
15.4688
15.5207
15.5698
15.6164
15.6608
15.7029
15.743
15.7811
15.8174
15.852
15.885
15.9163
15.9461
15.9745
16.0013
16.0268
16.0509
16.0737
16.0952
16.1154
16.1344
16.1521
16.1686
16.1838
16.1978
16.2105
16.2219
16.2321
16.241
16.2484
16.2545
16.259
16.2616
16.262
16.2593
16.2527
16.2382
16.22
16.1533
-7.53662
-7.54935
-7.5687
-7.5901
-7.61229
-7.63608
-7.66223
-7.6912
-7.7233
-7.75873
-7.7976
-7.83993
-7.88572
-7.93488
-7.98732
-8.04292
-8.10153
-8.16302
-8.22722
-8.29396
-8.36306
-8.43436
-8.50769
-8.58288
-8.65976
-8.73819
-8.81802
-8.89911
-8.98134
-9.06458
-9.14873
-9.23369
-9.31936
-9.40566
-9.49253
-9.57989
-9.66769
-9.75588
-9.84441
-9.93326
-10.0224
-10.1118
-10.2014
-10.2912
-10.3812
-10.4714
-10.5618
-10.6523
-10.7429
-10.8337
-10.9245
-11.0154
-11.1063
-11.1972
-11.288
-11.3787
-11.4691
-11.5592
-11.6488
-11.7379
-11.8261
-11.9134
-11.9995
-12.0841
-12.1668
-12.2473
-12.3251
-12.3997
-12.4705
-12.5368
-12.5978
-12.6526
-12.7002
-12.7395
-12.7692
-12.7878
-12.7936
-12.785
-12.76
-12.7167
-12.652
-12.5628
-12.4459
-12.2982
-12.1163
-11.8965
-11.6351
-11.3279
-10.9706
-10.5589
-10.0887
-9.55631
-8.95873
-8.29393
-7.55985
-6.75598
-5.88559
-4.95388
-3.96606
-2.92948
-1.85566
-0.756526
0.354645
1.4634
2.55532
3.61645
4.63436
5.59885
6.50254
7.341
8.11258
8.81798
9.45963
10.0412
10.567
11.0417
11.4702
11.8569
12.2061
12.5218
12.8075
13.0665
13.3017
13.5155
13.7104
13.8883
14.0511
14.2003
14.3375
14.4638
14.5805
14.6884
14.7885
14.8816
14.9684
15.0495
15.1254
15.1966
15.2635
15.3266
15.3861
15.4424
15.4956
15.5461
15.5941
15.6396
15.6829
15.7241
15.7633
15.8007
15.8362
15.8701
15.9023
15.9329
15.962
15.9897
16.0158
16.0406
16.064
16.086
16.1068
16.1262
16.1444
16.1612
16.1768
16.1911
16.204
16.2155
16.2257
16.2343
16.2415
16.2469
16.2504
16.2517
16.2501
16.2448
16.2347
16.2159
16.1925
16.1208
-7.56504
-7.57229
-7.58456
-7.60013
-7.61812
-7.63872
-7.66224
-7.68891
-7.71892
-7.75236
-7.7893
-7.82974
-7.87366
-7.92099
-7.97164
-8.02548
-8.08238
-8.14219
-8.20476
-8.26992
-8.3375
-8.40735
-8.47927
-8.55313
-8.62875
-8.70598
-8.78469
-8.86474
-8.946
-9.02836
-9.11171
-9.19596
-9.28101
-9.36679
-9.45323
-9.54027
-9.62786
-9.71595
-9.80452
-9.89351
-9.98292
-10.0727
-10.1629
-10.2534
-10.3443
-10.4355
-10.527
-10.6189
-10.7111
-10.8036
-10.8963
-10.9894
-11.0827
-11.1762
-11.2699
-11.3637
-11.4575
-11.5513
-11.6449
-11.7382
-11.8311
-11.9234
-12.0147
-12.105
-12.1938
-12.2807
-12.3653
-12.4472
-12.5256
-12.6
-12.6695
-12.7332
-12.7902
-12.8392
-12.8789
-12.9079
-12.9244
-12.9268
-12.9131
-12.8809
-12.8273
-12.749
-12.6429
-12.5059
-12.3343
-12.1244
-11.8721
-11.5729
-11.2222
-10.8154
-10.3478
-9.81533
-9.21444
-8.54281
-7.79888
-6.98187
-6.09403
-5.14077
-4.12916
-3.06843
-1.9706
-0.848806
0.28294
1.41002
2.5177
3.59175
4.61934
5.59006
6.49657
7.3348
8.10365
8.80447
9.44041
10.0158
10.5354
11.0044
11.4276
11.81
12.1556
12.4686
12.7525
13.0103
13.2449
13.4588
13.6542
13.833
13.9969
14.1476
14.2864
14.4145
14.533
14.6428
14.7449
14.8399
14.9286
15.0115
15.0893
15.1623
15.231
15.2957
15.3568
15.4147
15.4694
15.5214
15.5707
15.6175
15.6621
15.7045
15.7448
15.7833
15.8198
15.8547
15.8878
15.9193
15.9493
15.9776
16.0046
16.03
16.0541
16.0767
16.098
16.118
16.1366
16.1539
16.1698
16.1844
16.1975
16.2091
16.2193
16.2278
16.2346
16.2394
16.242
16.2419
16.2385
16.2307
16.2174
16.1946
16.1667
16.0912
-7.57891
-7.58122
-7.58703
-7.59691
-7.6105
-7.62758
-7.64809
-7.67209
-7.69962
-7.73073
-7.76541
-7.80367
-7.84546
-7.89074
-7.93941
-7.99136
-8.04645
-8.10456
-8.16551
-8.22915
-8.29532
-8.36385
-8.43456
-8.5073
-8.58191
-8.65823
-8.73612
-8.81545
-8.89609
-8.97792
-9.06083
-9.14474
-9.22954
-9.31517
-9.40155
-9.48865
-9.57639
-9.66475
-9.75369
-9.84317
-9.93318
-10.0237
-10.1147
-10.2062
-10.2982
-10.3907
-10.4837
-10.5772
-10.6711
-10.7656
-10.8605
-10.9559
-11.0518
-11.1481
-11.2448
-11.3419
-11.4392
-11.5368
-11.6346
-11.7324
-11.83
-11.9274
-12.0242
-12.1202
-12.2152
-12.3086
-12.4002
-12.4894
-12.5755
-12.658
-12.736
-12.8086
-12.8748
-12.9334
-12.9831
-13.0223
-13.0494
-13.0626
-13.0599
-13.0387
-12.9955
-12.9273
-12.8313
-12.7042
-12.5423
-12.3415
-12.0973
-11.8051
-11.4599
-11.0566
-10.59
-10.0554
-9.44837
-8.76597
-8.00631
-7.16913
-6.25701
-5.27584
-4.23445
-3.14439
-2.01947
-0.874395
0.276088
1.41749
2.53552
3.61627
4.64702
5.61742
6.52039
7.35238
8.11304
8.80451
9.4307
9.99649
10.5072
10.9683
11.3848
11.7616
12.1029
12.4126
12.6942
12.9506
13.1846
13.3985
13.5944
13.7741
13.9394
14.0917
14.2322
14.3622
14.4827
14.5945
14.6987
14.7958
14.8865
14.9714
15.0512
15.1261
15.1966
15.2631
15.326
15.3855
15.4419
15.4953
15.5461
15.5943
15.6402
15.6839
15.7255
15.7651
15.8027
15.8386
15.8728
15.9052
15.936
15.9652
15.9929
16.0191
16.0439
16.0672
16.0891
16.1096
16.1287
16.1465
16.1628
16.1776
16.191
16.2028
16.213
16.2214
16.2278
16.2321
16.2338
16.2324
16.2272
16.2171
16.2008
16.1745
16.1426
16.0642
-7.57702
-7.57517
-7.57525
-7.57974
-7.58886
-7.60213
-7.61927
-7.64021
-7.66489
-7.69331
-7.72543
-7.76125
-7.80071
-7.84377
-7.89035
-7.94033
-7.99361
-8.05004
-8.10946
-8.17172
-8.23664
-8.30406
-8.3738
-8.4457
-8.51958
-8.59531
-8.67271
-8.75167
-8.83203
-8.91369
-8.99652
-9.08044
-9.16535
-9.25118
-9.33786
-9.42533
-9.51356
-9.60249
-9.69209
-9.78234
-9.87322
-9.96471
-10.0568
-10.1495
-10.2429
-10.3369
-10.4315
-10.5267
-10.6226
-10.7191
-10.8164
-10.9143
-11.0128
-11.112
-11.2119
-11.3124
-11.4134
-11.515
-11.617
-11.7193
-11.8218
-11.9243
-12.0267
-12.1286
-12.2298
-12.3298
-12.4284
-12.525
-12.6189
-12.7096
-12.7961
-12.8776
-12.9531
-13.0213
-13.0808
-13.1301
-13.1675
-13.1913
-13.1995
-13.1887
-13.1552
-13.0963
-13.0095
-12.8915
-12.7382
-12.5453
-12.3081
-12.0215
-11.6801
-11.2782
-10.8103
-10.2707
-9.65447
-8.95769
-8.17793
-7.31494
-6.3717
-5.35503
-4.27589
-3.14898
-1.99145
-0.820827
0.346886
1.49771
2.61887
3.6979
4.72304
5.68453
6.5759
7.39434
8.14036
8.81702
9.42894
9.9816
10.4807
10.9318
11.3401
11.7103
12.0465
12.3525
12.6316
12.8865
13.1199
13.3339
13.5305
13.7113
13.8781
14.0321
14.1745
14.3066
14.4292
14.5433
14.6497
14.749
14.8419
14.929
15.0108
15.0878
15.1603
15.2288
15.2935
15.3548
15.4128
15.4679
15.5203
15.57
15.6173
15.6623
15.7052
15.746
15.7849
15.8219
15.8571
15.8905
15.9222
15.9524
15.9809
16.0079
16.0334
16.0574
16.0799
16.101
16.1207
16.1389
16.1557
16.1709
16.1846
16.1966
16.2068
16.2151
16.2212
16.2249
16.2258
16.2232
16.2164
16.2041
16.1852
16.1557
16.1202
16.0398
-7.56052
-7.55529
-7.55049
-7.55002
-7.55467
-7.5639
-7.57732
-7.5948
-7.61624
-7.64161
-7.67087
-7.70401
-7.74098
-7.78172
-7.82616
-7.8742
-7.92572
-7.98058
-8.03862
-8.09968
-8.16357
-8.23012
-8.29915
-8.37048
-8.44394
-8.51937
-8.5966
-8.67548
-8.75588
-8.83767
-8.92073
-9.00495
-9.09025
-9.17656
-9.26379
-9.3519
-9.44084
-9.53056
-9.62102
-9.71222
-9.80414
-9.89676
-9.9901
-10.0842
-10.179
-10.2745
-10.3708
-10.4679
-10.5657
-10.6644
-10.764
-10.8644
-10.9656
-11.0678
-11.1708
-11.2747
-11.3793
-11.4848
-11.591
-11.6978
-11.8052
-11.9128
-12.0206
-12.1284
-12.2358
-12.3424
-12.4479
-12.5517
-12.6533
-12.7519
-12.8468
-12.937
-13.0214
-13.0988
-13.1678
-13.2267
-13.274
-13.308
-13.3262
-13.3245
-13.2992
-13.2484
-13.1697
-13.0595
-12.9135
-12.7271
-12.4953
-12.2127
-11.8735
-11.4714
-11.0003
-10.454
-9.82666
-9.11339
-8.31091
-7.41845
-6.43883
-5.37967
-4.25411
-3.08073
-1.8819
-0.680275
0.505115
1.66063
2.77634
3.84311
4.8516
5.79352
6.66348
7.45973
8.18381
8.83966
9.4326
9.96854
10.4534
10.8927
11.2915
11.6543
11.985
12.2871
12.5637
12.8173
13.0501
13.2644
13.4618
13.6441
13.8125
13.9685
14.1131
14.2474
14.3724
14.4889
14.5977
14.6994
14.7947
14.8842
14.9682
15.0474
15.122
15.1925
15.2592
15.3224
15.3823
15.4391
15.4931
15.5444
15.5933
15.6397
15.684
15.7261
15.7662
15.8044
15.8407
15.8752
15.9079
15.939
15.9684
15.9962
16.0225
16.0473
16.0705
16.0923
16.1125
16.1313
16.1485
16.1642
16.1781
16.1904
16.2007
16.2089
16.2148
16.2181