/*--------------------------------*- C++ -*----------------------------------*\
| =========                 |                                                 |
| \\      /  F ield         | OpenFOAM: The Open Source CFD Toolbox           |
|  \\    /   O peration     | Version:  2.2.x                                 |
|   \\  /    A nd           | Web:      www.OpenFOAM.org                      |
|    \\/     M anipulation  |                                                 |
\*---------------------------------------------------------------------------*/
FoamFile
{
    version     2.0;
    format      ascii;
    class       surfaceScalarField;
    location    "250";
    object      phi;
}
// * * * * * * * * * * * * * * * * * * * * * * * * * * * * * * * * * * * * * //

dimensions      [0 3 -1 0 0 0 0];

internalField   nonuniform List<scalar> 
24170
(
3.08812e-06
4.57705e-08
3.01408e-06
7.40405e-08
2.95181e-06
6.22756e-08
2.88935e-06
6.24571e-08
2.82956e-06
5.97894e-08
2.77385e-06
5.57066e-08
2.72226e-06
5.15952e-08
2.67449e-06
4.77637e-08
2.63025e-06
4.42421e-08
2.58923e-06
4.10219e-08
2.55115e-06
3.80859e-08
2.51573e-06
3.54136e-08
2.48275e-06
3.29878e-08
2.45194e-06
3.08032e-08
2.42304e-06
2.88997e-08
2.39544e-06
2.75981e-08
2.36681e-06
2.86372e-08
3.31497e-08
2.33366e-06
3.46854e-06
3.36749e-08
3.45779e-06
8.47875e-08
3.44313e-06
7.69371e-08
3.42813e-06
7.74615e-08
3.4117e-06
7.62193e-08
3.39426e-06
7.31455e-08
3.37613e-06
6.97277e-08
3.35754e-06
6.63549e-08
3.33871e-06
6.30754e-08
3.31982e-06
5.991e-08
3.30103e-06
5.68797e-08
3.28244e-06
5.40006e-08
3.26414e-06
5.12907e-08
3.24616e-06
4.87824e-08
3.22849e-06
4.65636e-08
3.21119e-06
4.49063e-08
3.19561e-06
4.42157e-08
4.29285e-08
3.18583e-06
3.80918e-06
3.6691e-08
3.81771e-06
7.62496e-08
3.81981e-06
7.4846e-08
3.82168e-06
7.55819e-08
3.82224e-06
7.56673e-08
3.82141e-06
7.3975e-08
3.81952e-06
7.16125e-08
3.81682e-06
6.90616e-08
3.81346e-06
6.64371e-08
3.80957e-06
6.37956e-08
3.80527e-06
6.11874e-08
3.80062e-06
5.86522e-08
3.79568e-06
5.62268e-08
3.7905e-06
5.39571e-08
3.78515e-06
5.19192e-08
3.77982e-06
5.02378e-08
3.77516e-06
4.88794e-08
4.64011e-08
3.77169e-06
4.20597e-06
3.52853e-08
4.21507e-06
6.71383e-08
4.21926e-06
7.06621e-08
4.22269e-06
7.21508e-08
4.22541e-06
7.29431e-08
4.22736e-06
7.20278e-08
4.22875e-06
7.02255e-08
4.22972e-06
6.80909e-08
4.23035e-06
6.58082e-08
4.23069e-06
6.34606e-08
4.23076e-06
6.11119e-08
4.2306e-06
5.88103e-08
4.23024e-06
5.65961e-08
4.22968e-06
5.45099e-08
4.22901e-06
5.25953e-08
4.22838e-06
5.08713e-08
4.22809e-06
4.91657e-08
4.65417e-08
4.22795e-06
4.64066e-06
3.1932e-08
4.64848e-06
5.93135e-08
4.65327e-06
6.58775e-08
4.65721e-06
6.82072e-08
4.66075e-06
6.94099e-08
4.66376e-06
6.90112e-08
4.66635e-06
6.76396e-08
4.6686e-06
6.58447e-08
4.67056e-06
6.38497e-08
4.67226e-06
6.17563e-08
4.67374e-06
5.96357e-08
4.67501e-06
5.75411e-08
4.67609e-06
5.55132e-08
4.67701e-06
5.35844e-08
4.67784e-06
5.17744e-08
4.67865e-06
5.00592e-08
4.67953e-06
4.82871e-08
4.60126e-08
4.68006e-06
5.11828e-06
2.82464e-08
5.12536e-06
5.22382e-08
5.13069e-06
6.0548e-08
5.13516e-06
6.37298e-08
5.13924e-06
6.53364e-08
5.14284e-06
6.54099e-08
5.14601e-06
6.44631e-08
5.14885e-06
6.30097e-08
5.1514e-06
6.12997e-08
5.1537e-06
5.94542e-08
5.15578e-06
5.75542e-08
5.15767e-06
5.56579e-08
5.15937e-06
5.38066e-08
5.16093e-06
5.20276e-08
5.16238e-06
5.03285e-08
5.16376e-06
4.86776e-08
5.16508e-06
4.69732e-08
4.5017e-08
5.16607e-06
5.64447e-06
2.47823e-08
5.65102e-06
4.56924e-08
5.65668e-06
5.48855e-08
5.66157e-06
5.8836e-08
5.66606e-06
6.08552e-08
5.6701e-06
6.13703e-08
5.67372e-06
6.08376e-08
5.677e-06
5.9728e-08
5.67999e-06
5.83078e-08
5.68273e-06
5.67159e-08
5.68524e-06
5.50423e-08
5.68755e-06
5.33501e-08
5.68968e-06
5.16817e-08
5.69164e-06
5.00624e-08
5.69348e-06
4.84979e-08
5.69519e-06
4.69664e-08
5.69675e-06
4.5416e-08
4.37796e-08
5.69798e-06
4.40847e-06
2.24257e-08
4.41278e-06
4.13792e-08
4.41694e-06
5.07306e-08
4.42064e-06
5.51287e-08
4.42406e-06
5.74364e-08
4.4272e-06
5.82351e-08
4.43005e-06
5.79821e-08
4.43266e-06
5.71188e-08
4.43506e-06
5.59116e-08
4.43727e-06
5.45083e-08
4.4393e-06
5.30049e-08
4.44119e-06
5.14671e-08
4.44293e-06
4.99386e-08
4.44455e-06
4.84447e-08
4.44606e-06
4.69932e-08
4.44745e-06
4.55723e-08
4.44871e-06
4.41557e-08
4.27247e-08
4.44976e-06
5.14226e-06
2.00287e-08
5.14663e-06
3.7001e-08
5.15109e-06
4.62776e-08
5.15521e-06
5.10043e-08
5.15908e-06
5.35655e-08
5.16268e-06
5.46357e-08
5.166e-06
5.46641e-08
5.16906e-06
5.40589e-08
5.17189e-06
5.3082e-08
5.17451e-06
5.18869e-08
5.17694e-06
5.05733e-08
5.1792e-06
4.92095e-08
5.1813e-06
4.78406e-08
5.18325e-06
4.64932e-08
5.18507e-06
4.51789e-08
5.18674e-06
4.38964e-08
5.18826e-06
4.26391e-08
4.14152e-08
5.18957e-06
5.9982e-06
1.76235e-08
6.00258e-06
3.26205e-08
6.00727e-06
4.15856e-08
6.01178e-06
4.64934e-08
6.0161e-06
4.92476e-08
6.02018e-06
5.05576e-08
6.02399e-06
5.08543e-08
6.02754e-06
5.05085e-08
6.03085e-06
4.97718e-08
6.03393e-06
4.87994e-08
6.03681e-06
4.76929e-08
6.0395e-06
4.65217e-08
6.04201e-06
4.53321e-08
6.04435e-06
4.41527e-08
6.04653e-06
4.29998e-08
6.04855e-06
4.18808e-08
6.05039e-06
4.0802e-08
3.97811e-08
6.05202e-06
6.99665e-06
1.52402e-08
7.00097e-06
2.82957e-08
7.00585e-06
3.67083e-08
7.01072e-06
4.163e-08
7.01547e-06
4.44982e-08
7.02003e-06
4.59977e-08
7.02435e-06
4.65338e-08
7.02842e-06
4.64362e-08
7.03225e-06
4.59403e-08
7.03585e-06
4.51982e-08
7.03923e-06
4.43107e-08
7.04241e-06
4.3347e-08
7.04539e-06
4.23539e-08
7.04818e-06
4.1362e-08
7.05079e-06
4.03912e-08
7.05321e-06
3.94552e-08
7.05545e-06
3.85666e-08
3.77431e-08
7.05749e-06
8.16135e-06
1.29042e-08
8.16559e-06
2.40596e-08
8.1706e-06
3.16986e-08
8.17578e-06
3.64492e-08
8.18095e-06
3.93317e-08
8.18599e-06
4.09536e-08
8.19084e-06
4.16845e-08
8.19546e-06
4.18117e-08
8.19986e-06
4.15473e-08
8.20402e-06
4.10353e-08
8.20796e-06
4.03726e-08
8.21168e-06
3.96264e-08
8.21519e-06
3.88427e-08
8.2185e-06
3.80529e-08
8.22161e-06
3.72793e-08
8.22453e-06
3.65382e-08
8.22725e-06
3.58436e-08
3.52084e-08
8.22979e-06
9.52e-06
1.06298e-08
9.52414e-06
1.99202e-08
9.52925e-06
2.65958e-08
9.53472e-06
3.09804e-08
9.54029e-06
3.37552e-08
9.54583e-06
3.54149e-08
9.55123e-06
3.62806e-08
9.55645e-06
3.65954e-08
9.56145e-06
3.65428e-08
9.56624e-06
3.62524e-08
9.5708e-06
3.58137e-08
9.57513e-06
3.52891e-08
9.57925e-06
3.47223e-08
9.58317e-06
3.41438e-08
9.58687e-06
3.35756e-08
9.59037e-06
3.30341e-08
9.59369e-06
3.25315e-08
3.20747e-08
9.59682e-06
1.11049e-05
8.41486e-09
1.1109e-05
1.5858e-08
1.11142e-05
2.14116e-08
1.11199e-05
2.52361e-08
1.11259e-05
2.77611e-08
1.1132e-05
2.93556e-08
1.1138e-05
3.02799e-08
1.11438e-05
3.07304e-08
1.11495e-05
3.08574e-08
1.1155e-05
3.07702e-08
1.11603e-05
3.05466e-08
1.11653e-05
3.02412e-08
1.11701e-05
2.98928e-08
1.11748e-05
2.95286e-08
1.11792e-05
2.91683e-08
1.11834e-05
2.88258e-08
1.11874e-05
2.85102e-08
2.82236e-08
1.11913e-05
1.29538e-05
6.23619e-09
1.29578e-05
1.18218e-08
1.29631e-05
1.61144e-08
1.29692e-05
1.91927e-08
1.29756e-05
2.13118e-08
1.29823e-05
2.27212e-08
1.29889e-05
2.36126e-08
1.29955e-05
2.41322e-08
1.3002e-05
2.43932e-08
1.30083e-05
2.448e-08
1.30144e-05
2.44535e-08
1.30203e-05
2.43573e-08
1.30259e-05
2.42221e-08
1.30314e-05
2.40698e-08
1.30367e-05
2.39153e-08
1.30417e-05
2.37689e-08
1.30466e-05
2.36362e-08
2.35158e-08
1.30513e-05
1.51106e-05
4.04305e-09
1.51147e-05
7.71607e-09
1.51203e-05
1.06091e-08
1.51267e-05
1.27617e-08
1.51337e-05
1.43115e-08
1.5141e-05
1.54044e-08
1.51485e-05
1.61596e-08
1.51559e-05
1.66703e-08
1.51633e-05
1.70092e-08
1.51706e-05
1.72311e-08
1.51776e-05
1.73761e-08
1.51845e-05
1.74727e-08
1.51912e-05
1.75409e-08
1.51977e-05
1.75946e-08
1.52039e-05
1.76427e-08
1.521e-05
1.76907e-08
1.52159e-05
1.77409e-08
1.77896e-08
1.52216e-05
1.76267e-05
1.74826e-09
1.76311e-05
3.37805e-09
1.7637e-05
4.70299e-09
1.7644e-05
5.74542e-09
1.76518e-05
6.5595e-09
1.766e-05
7.20018e-09
1.76684e-05
7.71281e-09
1.76769e-05
8.13386e-09
1.76855e-05
8.49165e-09
1.76939e-05
8.80747e-09
1.77022e-05
9.0964e-09
1.77103e-05
9.36874e-09
1.77182e-05
9.63106e-09
1.77259e-05
9.88713e-09
1.77334e-05
1.01386e-08
1.77407e-05
1.03856e-08
1.77478e-05
1.06267e-08
1.08566e-08
1.77547e-05
1.78284e-05
-4.71944e-10
1.78326e-05
-8.43219e-10
1.78384e-05
-1.08938e-09
1.78454e-05
-1.18973e-09
1.78531e-05
-1.15485e-09
1.78613e-05
-1.01249e-09
1.78698e-05
-7.88118e-10
1.78784e-05
-4.99999e-10
1.78871e-05
-1.62375e-10
1.78957e-05
2.12983e-10
1.79042e-05
6.16164e-10
1.79125e-05
1.03893e-09
1.79207e-05
1.47418e-09
1.79286e-05
1.91561e-09
1.79364e-05
2.35751e-09
1.7944e-05
2.79474e-09
1.79514e-05
3.22243e-09
3.63404e-09
1.79586e-05
1.58834e-05
-2.49251e-09
1.58872e-05
-4.69704e-09
1.58925e-05
-6.38638e-09
1.58988e-05
-7.52189e-09
1.59059e-05
-8.18186e-09
1.59133e-05
-8.48204e-09
1.59211e-05
-8.51452e-09
1.59289e-05
-8.34585e-09
1.59368e-05
-8.02798e-09
1.59446e-05
-7.60225e-09
1.59523e-05
-7.10035e-09
1.59599e-05
-6.54649e-09
1.59673e-05
-5.95956e-09
1.59746e-05
-5.35459e-09
1.59817e-05
-4.74359e-09
1.59886e-05
-4.13624e-09
1.59954e-05
-3.54039e-09
-2.96365e-09
1.6002e-05
1.41506e-05
-4.40519e-09
1.41543e-05
-8.37755e-09
1.41593e-05
-1.14403e-08
1.41653e-05
-1.35043e-08
1.41719e-05
-1.47538e-08
1.41788e-05
-1.54172e-08
1.41859e-05
-1.56506e-08
1.41932e-05
-1.55627e-08
1.42004e-05
-1.52405e-08
1.42075e-05
-1.4752e-08
1.42146e-05
-1.41475e-08
1.42215e-05
-1.34644e-08
1.42283e-05
-1.27312e-08
1.42349e-05
-1.19703e-08
1.42413e-05
-1.11987e-08
1.42476e-05
-1.04299e-08
1.42538e-05
-9.67414e-09
-8.94027e-09
1.42597e-05
1.26069e-05
-6.23949e-09
1.26105e-05
-1.20094e-08
1.26155e-05
-1.64169e-08
1.26213e-05
-1.9284e-08
1.26275e-05
-2.09995e-08
1.2634e-05
-2.19367e-08
1.26407e-05
-2.23036e-08
1.26474e-05
-2.22461e-08
1.2654e-05
-2.18856e-08
1.26606e-05
-2.13136e-08
1.2667e-05
-2.05953e-08
1.26733e-05
-1.97783e-08
1.26795e-05
-1.88989e-08
1.26855e-05
-1.7985e-08
1.26914e-05
-1.70582e-08
1.26971e-05
-1.61354e-08
1.27026e-05
-1.52298e-08
-1.43519e-08
1.2708e-05
1.12315e-05
-7.95911e-09
1.12352e-05
-1.56924e-08
1.12402e-05
-2.14354e-08
1.12459e-05
-2.493e-08
1.12518e-05
-2.69732e-08
1.1258e-05
-2.80937e-08
1.12642e-05
-2.85212e-08
1.12704e-05
-2.8438e-08
1.12765e-05
-2.80014e-08
1.12825e-05
-2.73222e-08
1.12884e-05
-2.64761e-08
1.12942e-05
-2.5518e-08
1.12997e-05
-2.44894e-08
1.13052e-05
-2.34219e-08
1.13105e-05
-2.23401e-08
1.13156e-05
-2.1263e-08
1.13206e-05
-2.02055e-08
-1.91799e-08
1.13254e-05
1.00061e-05
-9.44852e-09
1.001e-05
-1.95401e-08
1.00151e-05
-2.65881e-08
1.00206e-05
-3.04577e-08
1.00264e-05
-3.26868e-08
1.00322e-05
-3.39032e-08
1.0038e-05
-3.43162e-08
1.00437e-05
-3.41527e-08
1.00493e-05
-3.3605e-08
1.00547e-05
-3.27969e-08
1.00601e-05
-3.181e-08
1.00653e-05
-3.0704e-08
1.00703e-05
-2.95237e-08
1.00752e-05
-2.83032e-08
1.00799e-05
-2.7069e-08
1.00845e-05
-2.58434e-08
1.00889e-05
-2.46463e-08
-2.34981e-08
1.00932e-05
8.91415e-06
-1.05002e-08
8.91829e-06
-2.36801e-08
8.92359e-06
-3.18814e-08
8.92894e-06
-3.58073e-08
8.93436e-06
-3.81053e-08
8.93978e-06
-3.93275e-08
8.94511e-06
-3.96453e-08
8.95031e-06
-3.93516e-08
8.95537e-06
-3.86673e-08
8.96029e-06
-3.77185e-08
8.96507e-06
-3.65874e-08
8.9697e-06
-3.53352e-08
8.97418e-06
-3.40074e-08
8.97852e-06
-3.2638e-08
8.9827e-06
-3.1253e-08
8.98673e-06
-2.98739e-08
8.9906e-06
-2.85202e-08
-2.72117e-08
8.99432e-06
7.94105e-06
-1.08774e-08
7.94572e-06
-2.83494e-08
7.951e-06
-3.71642e-08
7.95603e-06
-4.08336e-08
7.9611e-06
-4.31772e-08
7.96611e-06
-4.4336e-08
7.97095e-06
-4.44854e-08
7.97561e-06
-4.40175e-08
7.98011e-06
-4.3172e-08
7.98446e-06
-4.20695e-08
7.98867e-06
-4.07899e-08
7.99273e-06
-3.93934e-08
7.99664e-06
-3.79243e-08
8.00042e-06
-3.64145e-08
8.00406e-06
-3.48883e-08
8.00755e-06
-3.33675e-08
8.01091e-06
-3.18799e-08
-3.04735e-08
8.01417e-06
7.07299e-06
-9.53221e-09
7.0788e-06
-3.41673e-08
7.08382e-06
-4.2175e-08
7.08829e-06
-4.53083e-08
7.09287e-06
-4.77535e-08
7.09735e-06
-4.88152e-08
7.10164e-06
-4.8777e-08
7.10575e-06
-4.81352e-08
7.10971e-06
-4.71284e-08
7.11351e-06
-4.58694e-08
7.11716e-06
-4.4438e-08
7.12066e-06
-4.2895e-08
7.12402e-06
-4.12836e-08
7.12724e-06
-3.96331e-08
7.13031e-06
-3.79622e-08
7.13323e-06
-3.62822e-08
7.13595e-06
-3.46029e-08
-3.29332e-08
7.13841e-06
6.29715e-06
-4.17203e-09
6.30546e-06
-4.2476e-08
6.31048e-06
-4.71958e-08
6.31474e-06
-4.95678e-08
6.31886e-06
-5.18691e-08
6.32258e-06
-5.2535e-08
6.32596e-06
-5.21663e-08
6.32913e-06
-5.12987e-08
6.33211e-06
-5.01129e-08
6.33494e-06
-4.86949e-08
6.33762e-06
-4.71172e-08
6.34016e-06
-4.54374e-08
6.34257e-06
-4.36963e-08
6.34486e-06
-4.19205e-08
6.34702e-06
-4.0124e-08
6.34905e-06
-3.83091e-08
6.35092e-06
-3.64797e-08
-3.46465e-08
6.35263e-06
5.60112e-06
9.61064e-09
5.61075e-06
-5.21098e-08
5.61492e-06
-5.13627e-08
5.61945e-06
-5.41031e-08
5.62357e-06
-5.59852e-08
5.62673e-06
-5.56921e-08
5.62909e-06
-5.45253e-08
5.63083e-06
-5.30483e-08
5.6321e-06
-5.13772e-08
5.63297e-06
-4.95655e-08
5.63352e-06
-4.76657e-08
5.6338e-06
-4.57206e-08
5.63387e-06
-4.37598e-08
5.63375e-06
-4.18015e-08
5.63348e-06
-3.98503e-08
5.63305e-06
-3.78875e-08
5.63243e-06
-3.58558e-08
-3.3496e-08
5.63127e-06
5.00889e-06
3.02696e-09
5.00526e-06
-4.84755e-08
4.99693e-06
-4.30356e-08
4.99045e-06
-4.7619e-08
4.98385e-06
-4.93909e-08
4.97675e-06
-4.85946e-08
4.96911e-06
-4.68841e-08
4.96092e-06
-4.48593e-08
4.95224e-06
-4.26941e-08
4.94315e-06
-4.04782e-08
4.93376e-06
-3.82737e-08
4.92416e-06
-3.61205e-08
4.91444e-06
-3.40413e-08
4.90469e-06
-3.20469e-08
4.89497e-06
-3.01366e-08
4.88537e-06
-2.82896e-08
4.87596e-06
-2.64391e-08
-2.41467e-08
4.86661e-06
4.45958e-06
4.4111e-06
4.36807e-06
4.32045e-06
4.27106e-06
4.22246e-06
4.17558e-06
4.13072e-06
4.08802e-06
4.04755e-06
4.00927e-06
3.97315e-06
3.93911e-06
3.90706e-06
3.87693e-06
3.84863e-06
3.82219e-06
3.79805e-06
5.85182e-08
-5.85184e-08
9.64768e-08
-3.79592e-08
1.07971e-07
-1.14912e-08
9.3802e-08
1.41712e-08
5.71642e-08
3.6648e-08
2.67809e-09
5.44914e-08
-6.4782e-08
6.74738e-08
-1.39706e-07
7.49338e-08
-2.19293e-07
7.95942e-08
-3.02123e-07
8.28356e-08
-3.87291e-07
8.517e-08
-4.74133e-07
8.68433e-08
-5.62114e-07
8.79814e-08
-6.50771e-07
8.86564e-08
-7.39699e-07
8.89275e-08
-8.28548e-07
8.88488e-08
-9.17017e-07
8.847e-08
-1.00485e-06
8.78366e-08
-1.09184e-06
8.69896e-08
-1.17781e-06
8.59657e-08
-1.2626e-06
8.47983e-08
-1.34612e-06
8.35172e-08
-1.42827e-06
8.21484e-08
-1.50898e-06
8.07154e-08
-1.58822e-06
7.92385e-08
-1.66595e-06
7.77358e-08
-1.74218e-06
7.6223e-08
-1.81689e-06
7.47134e-08
-1.89011e-06
7.32185e-08
-1.96186e-06
7.17481e-08
-2.03217e-06
7.03103e-08
-2.10108e-06
6.89118e-08
-2.16864e-06
6.7558e-08
-2.23489e-06
6.62529e-08
-2.29989e-06
6.5e-08
-2.3637e-06
6.38016e-08
-2.42636e-06
6.26592e-08
-2.48793e-06
6.15738e-08
-2.54847e-06
6.05457e-08
-2.60805e-06
5.95746e-08
-2.66671e-06
5.86598e-08
-2.72451e-06
5.78e-08
-2.7815e-06
5.69936e-08
-2.83774e-06
5.62386e-08
-2.89328e-06
5.55326e-08
-2.94815e-06
5.48729e-08
-3.00241e-06
5.42567e-08
-3.05609e-06
5.36806e-08
-3.10923e-06
5.31412e-08
-3.16186e-06
5.26346e-08
-3.21402e-06
5.21567e-08
-3.26572e-06
5.17031e-08
-3.31699e-06
5.12693e-08
-3.36784e-06
5.08504e-08
-3.41828e-06
5.04414e-08
-3.46832e-06
5.00367e-08
-3.51795e-06
4.96306e-08
-3.56716e-06
4.92168e-08
-3.61595e-06
4.87884e-08
-3.66429e-06
4.8338e-08
-3.71214e-06
4.78578e-08
-3.75948e-06
4.73392e-08
-3.80625e-06
4.67733e-08
-3.8524e-06
4.61502e-08
-3.89786e-06
4.54594e-08
-3.94255e-06
4.46893e-08
-3.98637e-06
4.38275e-08
-4.02923e-06
4.28606e-08
-4.07101e-06
4.17741e-08
-4.11156e-06
4.05525e-08
-4.15074e-06
3.91788e-08
-4.18838e-06
3.76346e-08
-4.22428e-06
3.58994e-08
-4.25824e-06
3.39512e-08
-4.29001e-06
3.17666e-08
-4.31934e-06
2.9321e-08
-4.34593e-06
2.65874e-08
-4.36946e-06
2.35347e-08
-4.38959e-06
2.01275e-08
-4.40591e-06
1.63272e-08
-4.41801e-06
1.20965e-08
-4.4254e-06
7.39598e-09
-4.42756e-06
2.17111e-09
-4.424e-06
-3.55474e-09
-4.41424e-06
-9.7543e-09
-4.39776e-06
-1.64777e-08
-4.37401e-06
-2.37523e-08
-4.34242e-06
-3.15897e-08
-4.30243e-06
-3.99893e-08
-4.2535e-06
-4.89374e-08
-4.1951e-06
-5.84058e-08
-4.12676e-06
-6.83487e-08
-4.04806e-06
-7.87005e-08
-3.95869e-06
-8.93734e-08
-3.85844e-06
-1.00257e-07
-3.74722e-06
-1.11218e-07
-3.62512e-06
-1.221e-07
-3.49239e-06
-1.3273e-07
-3.34947e-06
-1.42918e-07
-3.197e-06
-1.5247e-07
-3.03581e-06
-1.6119e-07
-2.86691e-06
-1.68895e-07
-2.69149e-06
-1.75423e-07
-2.51085e-06
-1.80643e-07
-2.32639e-06
-1.8446e-07
-2.13957e-06
-1.86828e-07
-1.95183e-06
-1.87746e-07
-1.76457e-06
-1.87261e-07
-1.57911e-06
-1.8546e-07
-1.39664e-06
-1.82471e-07
-1.2182e-06
-1.78446e-07
-1.04463e-06
-1.73567e-07
-8.76628e-07
-1.68006e-07
-7.14656e-07
-1.6198e-07
-5.59014e-07
-1.55649e-07
-4.09834e-07
-1.49185e-07
-2.66896e-07
-1.4294e-07
-1.2963e-07
-1.3727e-07
1.74468e-09
-1.31379e-07
1.25825e-07
-1.24077e-07
2.42165e-07
-1.16338e-07
3.51002e-07
-1.08826e-07
4.52848e-07
-1.01834e-07
5.48221e-07
-9.53616e-08
6.37618e-07
-8.93825e-08
7.21494e-07
-8.3863e-08
8.00267e-07
-7.87686e-08
8.7432e-07
-7.40639e-08
9.44011e-07
-6.97104e-08
1.00967e-06
-6.5677e-08
1.07161e-06
-6.19439e-08
1.13011e-06
-5.84934e-08
1.18542e-06
-5.53052e-08
1.23779e-06
-5.23584e-08
1.28744e-06
-4.9633e-08
1.33456e-06
-4.71109e-08
1.37934e-06
-4.47757e-08
1.42195e-06
-4.26103e-08
1.46255e-06
-4.05994e-08
1.50128e-06
-3.87311e-08
1.53827e-06
-3.69947e-08
1.57364e-06
-3.53774e-08
1.60751e-06
-3.3867e-08
1.63996e-06
-3.24549e-08
1.6711e-06
-3.11349e-08
1.701e-06
-2.98984e-08
1.72973e-06
-2.87363e-08
1.75737e-06
-2.76421e-08
1.78399e-06
-2.66117e-08
1.80962e-06
-2.56396e-08
1.83434e-06
-2.47192e-08
1.85819e-06
-2.3845e-08
1.88121e-06
-2.30149e-08
1.90343e-06
-2.22263e-08
1.92491e-06
-2.14735e-08
1.94566e-06
-2.07522e-08
1.96573e-06
-2.00623e-08
1.98514e-06
-1.94014e-08
2.00391e-06
-1.87674e-08
2.02207e-06
-1.81639e-08
2.03965e-06
-1.75846e-08
2.05667e-06
-1.70205e-08
2.07315e-06
-1.64783e-08
2.0891e-06
-1.5955e-08
2.10454e-06
-1.54357e-08
2.11946e-06
-1.49191e-08
2.13387e-06
-1.44004e-08
2.14773e-06
-1.38586e-08
2.16101e-06
-1.32786e-08
2.17366e-06
-1.26443e-08
2.18554e-06
-1.18986e-08
2.19653e-06
-1.09906e-08
2.20635e-06
-9.81805e-09
2.21458e-06
-8.22922e-09
2.22053e-06
-5.95562e-09
2.22308e-06
-2.54861e-09
2.22012e-06
2.96449e-09
2.20659e-06
1.35221e-08
2.16993e-06
3.66626e-08
1.07141e-07
2.06279e-06
6.12516e-09
-6.46007e-08
-1.44474e-08
-1.73658e-08
-5.05282e-08
2.46051e-08
-9.55802e-08
5.92313e-08
-1.46709e-07
8.77824e-08
-2.03007e-07
1.10792e-07
-2.63926e-07
1.28394e-07
-3.30169e-07
1.41175e-07
-4.01102e-07
1.50526e-07
-4.7571e-07
1.57445e-07
-5.53098e-07
1.6256e-07
-6.32508e-07
1.66257e-07
-7.13308e-07
1.68789e-07
-7.94983e-07
1.70338e-07
-8.77096e-07
1.71048e-07
-9.59281e-07
1.71042e-07
-1.04123e-06
1.70426e-07
-1.12268e-06
1.69296e-07
-1.20342e-06
1.67735e-07
-1.28328e-06
1.65819e-07
-1.36209e-06
1.63613e-07
-1.43975e-06
1.61178e-07
-1.51617e-06
1.58565e-07
-1.59128e-06
1.55821e-07
-1.66503e-06
1.52985e-07
-1.73739e-06
1.50093e-07
-1.80834e-06
1.47175e-07
-1.87788e-06
1.44257e-07
-1.94602e-06
1.41361e-07
-2.01278e-06
1.38508e-07
-2.07818e-06
1.35711e-07
-2.14225e-06
1.32986e-07
-2.20504e-06
1.30341e-07
-2.26657e-06
1.27787e-07
-2.3269e-06
1.25329e-07
-2.38607e-06
1.22972e-07
-2.44413e-06
1.2072e-07
-2.50114e-06
1.18575e-07
-2.55713e-06
1.16538e-07
-2.61216e-06
1.14607e-07
-2.66629e-06
1.12783e-07
-2.71955e-06
1.11061e-07
-2.77199e-06
1.0944e-07
-2.82367e-06
1.07916e-07
-2.87462e-06
1.06483e-07
-2.92488e-06
1.05137e-07
-2.97449e-06
1.03872e-07
-3.02349e-06
1.02682e-07
-3.07191e-06
1.0156e-07
-3.11978e-06
1.00498e-07
-3.16711e-06
9.94894e-08
-3.21393e-06
9.85245e-08
-3.26025e-06
9.75942e-08
-3.30609e-06
9.66888e-08
-3.35144e-06
9.57977e-08
-3.39631e-06
9.49096e-08
-3.44069e-06
9.40124e-08
-3.48457e-06
9.30933e-08
-3.52792e-06
9.21381e-08
-3.57071e-06
9.11322e-08
-3.61291e-06
9.00595e-08
-3.65448e-06
8.89031e-08
-3.69535e-06
8.76443e-08
-3.73547e-06
8.62636e-08
-3.77475e-06
8.47391e-08
-3.81311e-06
8.30479e-08
-3.85045e-06
8.11648e-08
-3.88665e-06
7.90629e-08
-3.92159e-06
7.67133e-08
-3.95512e-06
7.4085e-08
-3.98709e-06
7.11444e-08
-4.01731e-06
6.78554e-08
-4.04558e-06
6.41791e-08
-4.0717e-06
6.00734e-08
-4.09543e-06
5.54942e-08
-4.1165e-06
5.03945e-08
-4.13463e-06
4.47238e-08
-4.14952e-06
3.84263e-08
-4.16084e-06
3.14391e-08
-4.16821e-06
2.36922e-08
-4.17123e-06
1.51146e-08
-4.16946e-06
5.62525e-09
-4.16251e-06
-4.79152e-09
-4.14995e-06
-1.61175e-08
-4.13131e-06
-2.84005e-08
-4.10609e-06
-4.16987e-08
-4.0738e-06
-5.6046e-08
-4.03393e-06
-7.14555e-08
-3.986e-06
-8.79199e-08
-3.92953e-06
-1.05408e-07
-3.86406e-06
-1.23861e-07
-3.78922e-06
-1.43187e-07
-3.70466e-06
-1.63255e-07
-3.61013e-06
-1.83895e-07
-3.50549e-06
-2.04892e-07
-3.39072e-06
-2.25989e-07
-3.26593e-06
-2.46886e-07
-3.13142e-06
-2.67252e-07
-2.98761e-06
-2.86726e-07
-2.83515e-06
-3.04936e-07
-2.67484e-06
-3.21513e-07
-2.50764e-06
-3.36108e-07
-2.33465e-06
-3.48416e-07
-2.15711e-06
-3.58187e-07
-1.97633e-06
-3.65249e-07
-1.79365e-06
-3.69513e-07
-1.61041e-06
-3.70985e-07
-1.42791e-06
-3.69759e-07
-1.24736e-06
-3.6601e-07
-1.06985e-06
-3.59989e-07
-8.96303e-07
-3.51989e-07
-7.27503e-07
-3.42365e-07
-5.6405e-07
-3.31453e-07
-4.06351e-07
-3.1967e-07
-2.54635e-07
-3.07359e-07
-1.08815e-07
-2.95e-07
3.08239e-08
-2.82575e-07
1.63093e-07
-2.69533e-07
2.87751e-07
-2.56036e-07
4.05308e-07
-2.41633e-07
5.16032e-07
-2.27068e-07
6.2039e-07
-2.13192e-07
7.18696e-07
-2.00148e-07
8.11289e-07
-1.87966e-07
8.98516e-07
-1.76623e-07
9.80723e-07
-1.66076e-07
1.05824e-06
-1.56282e-07
1.1314e-06
-1.47195e-07
1.20048e-06
-1.38773e-07
1.26579e-06
-1.30968e-07
1.32758e-06
-1.23735e-07
1.38612e-06
-1.17034e-07
1.44164e-06
-1.10826e-07
1.49435e-06
-1.05075e-07
1.54445e-06
-9.97434e-08
1.59213e-06
-9.47978e-08
1.63756e-06
-9.02086e-08
1.6809e-06
-8.59474e-08
1.72229e-06
-8.19866e-08
1.76187e-06
-7.8301e-08
1.79974e-06
-7.48685e-08
1.83604e-06
-7.16678e-08
1.87085e-06
-6.86784e-08
1.90428e-06
-6.58815e-08
1.93641e-06
-6.32609e-08
1.96731e-06
-6.08014e-08
1.99706e-06
-5.84881e-08
2.02572e-06
-5.63076e-08
2.05336e-06
-5.42488e-08
2.08002e-06
-5.23023e-08
2.10576e-06
-5.04592e-08
2.13062e-06
-4.87095e-08
2.15465e-06
-4.7044e-08
2.17788e-06
-4.54569e-08
2.20036e-06
-4.39445e-08
2.22211e-06
-4.25003e-08
2.24318e-06
-4.11198e-08
2.26358e-06
-3.97997e-08
2.28334e-06
-3.8534e-08
2.3025e-06
-3.73208e-08
2.32108e-06
-3.61593e-08
2.3391e-06
-3.50407e-08
2.35658e-06
-3.39595e-08
2.37355e-06
-3.29122e-08
2.39e-06
-3.18869e-08
2.40595e-06
-3.087e-08
2.42141e-06
-2.98466e-08
2.43633e-06
-2.879e-08
2.45071e-06
-2.76612e-08
2.46448e-06
-2.64141e-08
2.47754e-06
-2.49685e-08
2.48976e-06
-2.32072e-08
2.50088e-06
-2.09494e-08
2.51056e-06
-1.79005e-08
2.51816e-06
-1.35635e-08
2.52265e-06
-7.0399e-09
2.52218e-06
3.44087e-09
2.51344e-06
2.22651e-08
2.49039e-06
5.97096e-08
1.4376e-07
2.45377e-06
-4.20489e-08
-2.25449e-08
-9.39151e-08
3.44968e-08
-1.46862e-07
7.75548e-08
-2.00596e-07
1.12968e-07
-2.5576e-07
1.42948e-07
-3.12907e-07
1.67941e-07
-3.7266e-07
1.88148e-07
-4.35508e-07
2.04024e-07
-5.01297e-07
2.16316e-07
-5.69578e-07
2.25726e-07
-6.39827e-07
2.32807e-07
-7.11544e-07
2.37974e-07
-7.8429e-07
2.41534e-07
-8.5768e-07
2.43727e-07
-9.31384e-07
2.44752e-07
-1.00512e-06
2.44777e-07
-1.07864e-06
2.43948e-07
-1.15174e-06
2.42396e-07
-1.22424e-06
2.40237e-07
-1.296e-06
2.37574e-07
-1.36688e-06
2.345e-07
-1.4368e-06
2.31095e-07
-1.50567e-06
2.27434e-07
-1.57342e-06
2.23579e-07
-1.64003e-06
2.19587e-07
-1.70544e-06
2.15508e-07
-1.76965e-06
2.11383e-07
-1.83264e-06
2.0725e-07
-1.89442e-06
2.03141e-07
-1.955e-06
1.99082e-07
-2.01438e-06
1.95097e-07
-2.0726e-06
1.91204e-07
-2.12968e-06
1.8742e-07
-2.18565e-06
1.83755e-07
-2.24054e-06
1.80222e-07
-2.2944e-06
1.76826e-07
-2.34725e-06
1.73573e-07
-2.39914e-06
1.70466e-07
-2.45011e-06
1.67507e-07
-2.5002e-06
1.64696e-07
-2.54944e-06
1.62031e-07
-2.59789e-06
1.59509e-07
-2.64558e-06
1.57126e-07
-2.69254e-06
1.54878e-07
-2.73882e-06
1.52757e-07
-2.78444e-06
1.50757e-07
-2.82943e-06
1.48869e-07
-2.87384e-06
1.47086e-07
-2.91768e-06
1.45396e-07
-2.96097e-06
1.4379e-07
-3.00373e-06
1.42257e-07
-3.04599e-06
1.40783e-07
-3.08775e-06
1.39355e-07
-3.12902e-06
1.37959e-07
-3.1698e-06
1.3658e-07
-3.21009e-06
1.35201e-07
-3.24988e-06
1.33804e-07
-3.28916e-06
1.3237e-07
-3.3279e-06
1.30879e-07
-3.36608e-06
1.29308e-07
-3.40365e-06
1.27633e-07
-3.44058e-06
1.2583e-07
-3.4768e-06
1.2387e-07
-3.51226e-06
1.21724e-07
-3.54688e-06
1.19359e-07
-3.58057e-06
1.1674e-07
-3.61323e-06
1.1383e-07
-3.64476e-06
1.1059e-07
-3.67502e-06
1.06975e-07
-3.70388e-06
1.0294e-07
-3.73117e-06
9.84349e-08
-3.75673e-06
9.34064e-08
-3.78035e-06
8.77975e-08
-3.80182e-06
8.1547e-08
-3.82092e-06
7.45902e-08
-3.83738e-06
6.68587e-08
-3.85094e-06
5.82795e-08
-3.86129e-06
4.8774e-08
-3.8681e-06
3.82554e-08
-3.87104e-06
2.663e-08
-3.86972e-06
1.3801e-08
-3.86378e-06
-3.16946e-10
-3.85282e-06
-1.57479e-08
-3.83641e-06
-3.25193e-08
-3.81411e-06
-5.07075e-08
-3.78543e-06
-7.03736e-08
-3.74993e-06
-9.15559e-08
-3.70712e-06
-1.14267e-07
-3.65655e-06
-1.38491e-07
-3.59778e-06
-1.64176e-07
-3.53041e-06
-1.91231e-07
-3.45409e-06
-2.19516e-07
-3.36851e-06
-2.48836e-07
-3.27346e-06
-2.78939e-07
-3.16884e-06
-3.09509e-07
-3.05466e-06
-3.40169e-07
-2.93107e-06
-3.70482e-07
-2.79835e-06
-3.99966e-07
-2.65698e-06
-4.28099e-07
-2.50757e-06
-4.54344e-07
-2.35091e-06
-4.78171e-07
-2.18794e-06
-4.99079e-07
-2.01973e-06
-5.16629e-07
-1.84745e-06
-5.3047e-07
-1.67234e-06
-5.40356e-07
-1.49569e-06
-5.46172e-07
-1.31875e-06
-5.47928e-07
-1.14273e-06
-5.45771e-07
-9.68778e-07
-5.39967e-07
-7.97883e-07
-5.30884e-07
-6.30915e-07
-5.18958e-07
-4.68573e-07
-5.04708e-07
-3.11402e-07
-4.88624e-07
-1.59776e-07
-4.71296e-07
-1.38574e-08
-4.53278e-07
1.25455e-07
-4.34313e-07
2.57482e-07
-4.14602e-07
3.82422e-07
-3.94472e-07
5.0045e-07
-3.74064e-07
6.12154e-07
-3.53336e-07
7.17922e-07
-3.32834e-07
8.17907e-07
-3.13176e-07
9.12329e-07
-2.94568e-07
1.00145e-06
-2.77083e-07
1.08555e-06
-2.60724e-07
1.16493e-06
-2.45461e-07
1.23989e-06
-2.31248e-07
1.31073e-06
-2.18031e-07
1.37771e-06
-2.05755e-07
1.4411e-06
-1.94361e-07
1.50116e-06
-1.83792e-07
1.55812e-06
-1.73989e-07
1.6122e-06
-1.64898e-07
1.66359e-06
-1.56467e-07
1.7125e-06
-1.48646e-07
1.75908e-06
-1.41384e-07
1.80351e-06
-1.34638e-07
1.84593e-06
-1.28366e-07
1.88647e-06
-1.22532e-07
1.92527e-06
-1.17098e-07
1.96243e-06
-1.1203e-07
1.99806e-06
-1.07297e-07
2.03225e-06
-1.02872e-07
2.06509e-06
-9.87283e-08
2.09667e-06
-9.48406e-08
2.12706e-06
-9.11875e-08
2.15632e-06
-8.77493e-08
2.18452e-06
-8.45068e-08
2.21171e-06
-8.14419e-08
2.23795e-06
-7.85396e-08
2.26328e-06
-7.57879e-08
2.28775e-06
-7.31756e-08
2.31139e-06
-7.06902e-08
2.33426e-06
-6.83216e-08
2.35638e-06
-6.60623e-08
2.37779e-06
-6.39047e-08
2.39851e-06
-6.18427e-08
2.41859e-06
-5.98725e-08
2.43804e-06
-5.79868e-08
2.4569e-06
-5.61796e-08
2.4752e-06
-5.44487e-08
2.49294e-06
-5.27866e-08
2.51016e-06
-5.11834e-08
2.52688e-06
-4.96312e-08
2.54311e-06
-4.81159e-08
2.55886e-06
-4.66174e-08
2.57413e-06
-4.51115e-08
2.5889e-06
-4.35619e-08
2.60314e-06
-4.1913e-08
2.61682e-06
-4.00919e-08
2.62984e-06
-3.79892e-08
2.64207e-06
-3.54382e-08
2.6533e-06
-3.2187e-08
2.66323e-06
-2.78266e-08
2.67136e-06
-2.16851e-08
2.67689e-06
-1.2568e-08
2.67863e-06
1.70017e-09
2.67503e-06
2.58717e-08
2.66507e-06
6.96723e-08
1.52573e-07
2.65626e-06
-6.54914e-08
4.29526e-08
-1.29732e-07
9.87211e-08
-1.90919e-07
1.38741e-07
-2.50279e-07
1.72325e-07
-3.08772e-07
2.0144e-07
-3.67234e-07
2.26401e-07
-4.26381e-07
2.47294e-07
-4.86704e-07
2.64346e-07
-5.48351e-07
2.77963e-07
-6.1124e-07
2.88614e-07
-6.75167e-07
2.96734e-07
-7.39886e-07
3.02694e-07
-8.05154e-07
3.06801e-07
-8.70738e-07
3.09312e-07
-9.36429e-07
3.10445e-07
-1.00204e-06
3.10389e-07
-1.06741e-06
3.09313e-07
-1.13238e-06
3.07367e-07
-1.19683e-06
3.04686e-07
-1.26064e-06
3.01391e-07
-1.32373e-06
2.9759e-07
-1.38602e-06
2.93381e-07
-1.44743e-06
2.8885e-07
-1.50793e-06
2.84073e-07
-1.56746e-06
2.7912e-07
-1.626e-06
2.74049e-07
-1.68353e-06
2.68912e-07
-1.74003e-06
2.63756e-07
-1.79551e-06
2.5862e-07
-1.84997e-06
2.53537e-07
-1.90341e-06
2.48536e-07
-1.95584e-06
2.43642e-07
-2.0073e-06
2.38873e-07
-2.05779e-06
2.34248e-07
-2.10735e-06
2.29778e-07
-2.15599e-06
2.25473e-07
-2.20376e-06
2.21341e-07
-2.25068e-06
2.17386e-07
-2.29678e-06
2.13611e-07
-2.3421e-06
2.10016e-07
-2.38667e-06
2.066e-07
-2.43052e-06
2.03359e-07
-2.47368e-06
2.00289e-07
-2.51619e-06
1.97384e-07
-2.55807e-06
1.94636e-07
-2.59935e-06
1.92037e-07
-2.64006e-06
1.89578e-07
-2.68022e-06
1.87247e-07
-2.71986e-06
1.85032e-07
-2.75899e-06
1.8292e-07
-2.79763e-06
1.80896e-07
-2.83579e-06
1.78945e-07
-2.87348e-06
1.7705e-07
-2.91071e-06
1.75192e-07
-2.94748e-06
1.73352e-07
-2.98379e-06
1.71508e-07
-3.01962e-06
1.69638e-07
-3.05497e-06
1.67716e-07
-3.08981e-06
1.65717e-07
-3.12411e-06
1.63611e-07
-3.15785e-06
1.61367e-07
-3.19097e-06
1.58952e-07
-3.22343e-06
1.56329e-07
-3.25516e-06
1.53459e-07
-3.2861e-06
1.50299e-07
-3.31616e-06
1.46803e-07
-3.34525e-06
1.42921e-07
-3.37326e-06
1.386e-07
-3.40007e-06
1.33784e-07
-3.42554e-06
1.2841e-07
-3.44952e-06
1.22412e-07
-3.47183e-06
1.1572e-07
-3.49229e-06
1.08259e-07
-3.51069e-06
9.99487e-08
-3.52681e-06
9.07041e-08
-3.54039e-06
8.04359e-08
-3.55116e-06
6.90499e-08
-3.55883e-06
5.64456e-08
-3.56309e-06
4.25147e-08
-3.5636e-06
2.71425e-08
-3.56001e-06
1.02075e-08
-3.55196e-06
-8.37107e-09
-3.53906e-06
-2.86444e-08
-3.52089e-06
-5.06943e-08
-3.49699e-06
-7.46044e-08
-3.46692e-06
-1.00443e-07
-3.43023e-06
-1.28252e-07
-3.38645e-06
-1.58044e-07
-3.33515e-06
-1.89793e-07
-3.2759e-06
-2.23426e-07
-3.20831e-06
-2.58819e-07
-3.13205e-06
-2.95783e-07
-3.04682e-06
-3.34058e-07
-2.95245e-06
-3.7331e-07
-2.84884e-06
-4.1312e-07
-2.73602e-06
-4.5299e-07
-2.61416e-06
-4.92347e-07
-2.48356e-06
-5.3056e-07
-2.34471e-06
-5.66949e-07
-2.19824e-06
-6.00816e-07
-2.04494e-06
-6.31474e-07
-1.88574e-06
-6.58281e-07
-1.7217e-06
-6.80671e-07
-1.55397e-06
-6.98202e-07
-1.38376e-06
-7.10561e-07
-1.21232e-06
-7.17613e-07
-1.04086e-06
-7.19386e-07
-8.70553e-07
-7.16082e-07
-7.0246e-07
-7.0806e-07
-5.37533e-07
-6.95809e-07
-3.7658e-07
-6.7991e-07
-2.2026e-07
-6.61028e-07
-6.89795e-08
-6.39905e-07
7.65272e-08