/*--------------------------------*- C++ -*----------------------------------*\
| =========                 |                                                 |
| \\      /  F ield         | OpenFOAM: The Open Source CFD Toolbox           |
|  \\    /   O peration     | Version:  2.2.x                                 |
|   \\  /    A nd           | Web:      www.OpenFOAM.org                      |
|    \\/     M anipulation  |                                                 |
\*---------------------------------------------------------------------------*/
FoamFile
{
    version     2.0;
    format      ascii;
    class       volVectorField;
    location    "250";
    object      U;
}
// * * * * * * * * * * * * * * * * * * * * * * * * * * * * * * * * * * * * * //

dimensions      [0 1 -1 0 0 0 0];

internalField   nonuniform List<vector> 
12225
(
(9.83968 -1.23841 0)
(9.7385 -0.731468 0)
(9.53645 -0.467295 0)
(9.32219 -0.307345 0)
(9.12279 -0.205871 0)
(8.93845 -0.139481 0)
(8.76744 -0.0948036 0)
(8.60897 -0.0640778 0)
(8.46224 -0.0426004 0)
(8.32631 -0.0273933 0)
(8.20021 -0.0165135 0)
(8.08304 -0.00866369 0)
(7.974 -0.00296008 0)
(7.87232 0.00121628 0)
(7.77719 0.0043338 0)
(7.6876 0.00694211 0)
(7.5974 0.0106558 0)
(7.52619 -0.0173822 0)
(10.0334 0.447425 0)
(10.0223 0.427009 0)
(9.9878 0.340355 0)
(9.94193 0.271145 0)
(9.89496 0.218025 0)
(9.84615 0.177501 0)
(9.79477 0.147024 0)
(9.7415 0.124127 0)
(9.68721 0.10679 0)
(9.63252 0.0935263 0)
(9.57791 0.0832702 0)
(9.52375 0.0752563 0)
(9.47032 0.0689381 0)
(9.4178 0.0639388 0)
(9.36624 0.0600543 0)
(9.31569 0.0574647 0)
(9.26746 0.0574724 0)
(9.22648 0.0728552 0)
(9.99286 0.0268426 0)
(10.002 -0.00862688 0)
(10.0173 -0.0273547 0)
(10.0238 -0.0221251 0)
(10.0263 -0.0106538 0)
(10.0259 0.000789357 0)
(10.0224 0.0110156 0)
(10.0162 0.0197224 0)
(10.0082 0.0268821 0)
(9.9986 0.0326458 0)
(9.98779 0.0372341 0)
(9.976 0.0408708 0)
(9.96338 0.043764 0)
(9.95009 0.0461142 0)
(9.93624 0.0481557 0)
(9.9221 0.0502517 0)
(9.90874 0.0526947 0)
(9.89611 0.0526283 0)
(9.99994 0.0197661 0)
(10.0121 0.0435524 0)
(10.0303 0.0559888 0)
(10.0402 0.0657234 0)
(10.0468 0.0712389 0)
(10.0522 0.0731425 0)
(10.0561 0.0731183 0)
(10.0589 0.0722034 0)
(10.0608 0.0708963 0)
(10.0619 0.0694623 0)
(10.0623 0.0680551 0)
(10.0622 0.0667623 0)
(10.0616 0.0656379 0)
(10.0605 0.0647294 0)
(10.059 0.064103 0)
(10.0573 0.0638398 0)
(10.0561 0.0637944 0)
(10.0553 0.0624326 0)
(10.0022 0.0187972 0)
(10.0141 0.0410694 0)
(10.0296 0.047233 0)
(10.0394 0.0497852 0)
(10.047 0.0513825 0)
(10.0539 0.0521343 0)
(10.06 0.0525629 0)
(10.0652 0.052973 0)
(10.0697 0.0534153 0)
(10.0736 0.053875 0)
(10.077 0.0543422 0)
(10.08 0.054817 0)
(10.0825 0.0553104 0)
(10.0846 0.0558456 0)
(10.0865 0.0564531 0)
(10.0882 0.0571294 0)
(10.09 0.0576678 0)
(10.0916 0.0571806 0)
(10.0025 0.0190786 0)
(10.0129 0.0373316 0)
(10.0264 0.0437408 0)
(10.0363 0.047269 0)
(10.0444 0.0502211 0)
(10.0518 0.0522981 0)
(10.0584 0.0537001 0)
(10.0643 0.0547101 0)
(10.0695 0.0554633 0)
(10.0743 0.056031 0)
(10.0785 0.0564719 0)
(10.0824 0.0568376 0)
(10.0859 0.057173 0)
(10.0891 0.0575163 0)
(10.092 0.0578908 0)
(10.0947 0.0582713 0)
(10.0974 0.0585077 0)
(10.0998 0.0582098 0)
(10.0021 0.0168213 0)
(10.0109 0.0321447 0)
(10.0227 0.039356 0)
(10.0324 0.0435868 0)
(10.0406 0.0468145 0)
(10.0481 0.0490382 0)
(10.0549 0.0505018 0)
(10.061 0.0515241 0)
(10.0665 0.052285 0)
(10.0716 0.0528793 0)
(10.0762 0.0533721 0)
(10.0805 0.0538129 0)
(10.0844 0.0542394 0)
(10.088 0.0546776 0)
(10.0914 0.0551356 0)
(10.0945 0.0555837 0)
(10.0974 0.0559289 0)
(10.1 0.0560064 0)
(10.0018 0.0149076 0)
(10.0093 0.0285684 0)
(10.0197 0.036124 0)
(10.029 0.0406688 0)
(10.037 0.0439997 0)
(10.0444 0.0463505 0)
(10.0512 0.0479671 0)
(10.0574 0.049137 0)
(10.063 0.0500346 0)
(10.0682 0.0507555 0)
(10.073 0.0513648 0)
(10.0775 0.0519113 0)
(10.0816 0.0524313 0)
(10.0854 0.0529487 0)
(10.0889 0.0534713 0)
(10.0922 0.0539818 0)
(10.0952 0.0544344 0)
(10.098 0.0547752 0)
(10.0016 0.0133584 0)
(10.008 0.0256793 0)
(10.0173 0.0331704 0)
(10.026 0.0378528 0)
(10.0337 0.0412574 0)
(10.0409 0.0437094 0)
(10.0477 0.0454469 0)
(10.0539 0.0467287 0)
(10.0596 0.0477238 0)
(10.0649 0.0485313 0)
(10.0698 0.049219 0)
(10.0744 0.0498375 0)
(10.0786 0.0504234 0)
(10.0825 0.051001 0)
(10.0862 0.0515805 0)
(10.0896 0.0521563 0)
(10.0927 0.052711 0)
(10.0956 0.0532398 0)
(10.0014 0.0118429 0)
(10.0069 0.022805 0)
(10.0149 0.0300223 0)
(10.0229 0.0347478 0)
(10.0303 0.0381942 0)
(10.0373 0.0407233 0)
(10.0439 0.0425643 0)
(10.05 0.0439482 0)
(10.0557 0.0450369 0)
(10.0611 0.0459314 0)
(10.066 0.0467011 0)
(10.0707 0.0473975 0)
(10.075 0.0480576 0)
(10.079 0.0487067 0)
(10.0828 0.0493593 0)
(10.0863 0.0500207 0)
(10.0895 0.0506938 0)
(10.0925 0.0513983 0)
(10.0012 0.0103369 0)
(10.0058 0.0199434 0)
(10.0127 0.0267283 0)
(10.02 0.0313824 0)
(10.0269 0.0348063 0)
(10.0336 0.0373633 0)
(10.0399 0.0392717 0)
(10.0459 0.0407344 0)
(10.0516 0.0419024 0)
(10.0569 0.042875 0)
(10.0619 0.0437218 0)
(10.0666 0.0444938 0)
(10.071 0.0452282 0)
(10.0751 0.045952 0)
(10.0789 0.0466839 0)
(10.0825 0.0474377 0)
(10.0859 0.0482285 0)
(10.0891 0.0490828 0)
(10.0011 0.00885225 0)
(10.0049 0.0171305 0)
(10.0108 0.0233334 0)
(10.0172 0.0277837 0)
(10.0237 0.0311057 0)
(10.0299 0.033631 0)
(10.036 0.0355609 0)
(10.0418 0.0370702 0)
(10.0474 0.0382946 0)
(10.0526 0.0393291 0)
(10.0576 0.0402409 0)
(10.0623 0.0410798 0)
(10.0667 0.0418829 0)
(10.0709 0.0426784 0)
(10.0748 0.043488 0)
(10.0785 0.0443308 0)
(10.082 0.0452266 0)
(10.0853 0.0461992 0)
(10.0009 0.00740293 0)
(10.0041 0.0143824 0)
(10.0091 0.0198678 0)
(10.0148 0.0239733 0)
(10.0207 0.0271 0)
(10.0266 0.0295215 0)
(10.0323 0.0314148 0)
(10.0379 0.0329267 0)
(10.0433 0.0341746 0)
(10.0484 0.0352453 0)
(10.0534 0.0362017 0)
(10.058 0.0370909 0)
(10.0625 0.0379491 0)
(10.0667 0.0388041 0)
(10.0707 0.0396789 0)
(10.0745 0.0405939 0)
(10.0781 0.0415685 0)
(10.0816 0.0426194 0)
(10.0007 0.00599277 0)
(10.0034 0.0116947 0)
(10.0076 0.0163486 0)
(10.0127 0.0199682 0)
(10.0181 0.0227913 0)
(10.0236 0.0250224 0)
(10.029 0.0268072 0)
(10.0344 0.0282645 0)
(10.0396 0.0294913 0)
(10.0446 0.0305624 0)
(10.0495 0.0315339 0)
(10.0541 0.0324485 0)
(10.0586 0.033339 0)
(10.0628 0.0342318 0)
(10.0669 0.0351483 0)
(10.0708 0.0361071 0)
(10.0745 0.0371242 0)
(10.0781 0.0382089 0)
(10.0006 0.00461326 0)
(10.0029 0.00904403 0)
(10.0065 0.0127693 0)
(10.011 0.0157665 0)
(10.0159 0.0181657 0)
(10.021 0.0201054 0)
(10.0262 0.0216954 0)
(10.0313 0.0230261 0)
(10.0364 0.0241728 0)
(10.0413 0.0251956 0)
(10.0461 0.0261406 0)
(10.0507 0.0270435 0)
(10.0552 0.0279323 0)
(10.0595 0.0288291 0)
(10.0636 0.029752 0)
(10.0676 0.0307155 0)
(10.0714 0.0317312 0)
(10.0753 0.0328018 0)
(10.0005 0.00324089 0)
(10.0025 0.00638216 0)
(10.0057 0.00908672 0)
(10.0097 0.0113294 0)
(10.0142 0.013176 0)
(10.019 0.0147103 0)
(10.0239 0.0160055 0)
(10.0289 0.0171237 0)
(10.0338 0.0181173 0)
(10.0387 0.0190291 0)
(10.0434 0.0198928 0)
(10.0481 0.020735 0)
(10.0525 0.0215762 0)
(10.0569 0.0224328 0)
(10.0611 0.0233175 0)
(10.0652 0.0242399 0)
(10.0692 0.0252066 0)
(10.0731 0.0262158 0)
(10.0005 0.00183457 0)
(10.0022 0.00363099 0)
(10.0052 0.00521224 0)
(10.0089 0.00656685 0)
(10.0131 0.00772528 0)
(10.0177 0.0087291 0)
(10.0225 0.00961688 0)
(10.0273 0.0104225 0)
(10.0322 0.011175 0)
(10.037 0.0118984 0)
(10.0417 0.0126117 0)
(10.0464 0.01333 0)
(10.0509 0.0140648 0)
(10.0554 0.0148249 0)
(10.0597 0.0156164 0)
(10.0639 0.0164435 0)
(10.068 0.0173082 0)
(10.0721 0.0182057 0)
(10.0005 0.000421986 0)
(10.0021 0.000851941 0)
(10.005 0.00125803 0)
(10.0086 0.00165004 0)
(10.0128 0.00203834 0)
(10.0173 0.00243073 0)
(10.022 0.00283407 0)
(10.0268 0.00325523 0)
(10.0317 0.00370046 0)
(10.0365 0.00417476 0)
(10.0413 0.00468199 0)
(10.0461 0.00522495 0)
(10.0507 0.00580547 0)
(10.0552 0.00642438 0)
(10.0596 0.00708158 0)
(10.064 0.00777613 0)
(10.0682 0.00850589 0)
(10.0724 0.00926424 0)
(10.0005 -0.000909967 0)
(10.0022 -0.00177998 0)
(10.0051 -0.00250359 0)
(10.0088 -0.00304172 0)
(10.0131 -0.00340077 0)
(10.0177 -0.00360682 0)
(10.0225 -0.00368356 0)
(10.0274 -0.00364895 0)
(10.0324 -0.0035178 0)
(10.0373 -0.00330253 0)
(10.0422 -0.00301343 0)
(10.0471 -0.00265893 0)
(10.0518 -0.0022462 0)
(10.0564 -0.00178158 0)
(10.061 -0.00127092 0)
(10.0654 -0.000719712 0)
(10.0697 -0.000133483 0)
(10.074 0.000479627 0)
(10.0005 -0.00215077 0)
(10.0023 -0.00424683 0)
(10.0054 -0.00602792 0)
(10.0094 -0.00741188 0)
(10.0139 -0.0084345 0)
(10.0188 -0.00916652 0)
(10.0238 -0.00966266 0)
(10.0288 -0.00996369 0)
(10.034 -0.0101041 0)
(10.039 -0.0101125 0)
(10.0441 -0.0100116 0)
(10.049 -0.00981919 0)
(10.0539 -0.00954995 0)
(10.0586 -0.00921622 0)
(10.0632 -0.0088286 0)
(10.0677 -0.00839628 0)
(10.0721 -0.0079272 0)
(10.0765 -0.00743021 0)
(10.0005 -0.00333673 0)
(10.0025 -0.00664762 0)
(10.006 -0.00944991 0)
(10.0104 -0.0115969 0)
(10.0152 -0.0131952 0)
(10.0203 -0.0143802 0)
(10.0256 -0.0152356 0)
(10.0309 -0.0158228 0)
(10.0362 -0.0161957 0)
(10.0414 -0.0163983 0)
(10.0466 -0.0164635 0)
(10.0517 -0.016417 0)
(10.0566 -0.0162792 0)
(10.0615 -0.0160673 0)
(10.0662 -0.0157958 0)
(10.0708 -0.0154771 0)
(10.0752 -0.0151224 0)
(10.0797 -0.0147429 0)
(10.0005 -0.00446569 0)
(10.0028 -0.00904882 0)
(10.0067 -0.012857 0)
(10.0116 -0.0156595 0)
(10.0169 -0.017722 0)
(10.0223 -0.0192662 0)
(10.0278 -0.0203968 0)
(10.0334 -0.021194 0)
(10.0389 -0.0217316 0)
(10.0443 -0.0220668 0)
(10.0496 -0.0222409 0)
(10.0548 -0.0222862 0)
(10.0598 -0.0222282 0)
(10.0647 -0.0220882 0)
(10.0695 -0.0218843 0)
(10.0741 -0.0216316 0)
(10.0786 -0.0213428 0)
(10.0831 -0.0210292 0)
(10.0005 -0.00550184 0)
(10.0029 -0.0115216 0)
(10.0075 -0.0163403 0)
(10.0131 -0.0196982 0)
(10.0188 -0.0221557 0)
(10.0246 -0.0240109 0)
(10.0304 -0.0253762 0)
(10.0362 -0.0263594 0)
(10.0418 -0.0270566 0)
(10.0474 -0.0275333 0)
(10.0528 -0.0278337 0)
(10.058 -0.0279916 0)
(10.0631 -0.0280343 0)
(10.0681 -0.0279846 0)
(10.0729 -0.0278624 0)
(10.0776 -0.0276862 0)
(10.0821 -0.0274744 0)
(10.0866 -0.0272481 0)
(10.0003 -0.00636831 0)
(10.0029 -0.014111 0)
(10.0083 -0.0197312 0)
(10.0146 -0.0233642 0)
(10.0208 -0.0260653 0)
(10.0269 -0.0280935 0)
(10.0329 -0.0295284 0)
(10.0388 -0.0305232 0)
(10.0446 -0.031211 0)
(10.0502 -0.031673 0)
(10.0556 -0.0319611 0)
(10.0609 -0.0321133 0)
(10.066 -0.0321585 0)
(10.071 -0.032119 0)
(10.0758 -0.0320136 0)
(10.0804 -0.0318596 0)
(10.0848 -0.0316739 0)
(10.0892 -0.0314749 0)
(9.99986 -0.00701786 0)
(10.0025 -0.0177052 0)
(10.0092 -0.0240308 0)
(10.0161 -0.027714 0)
(10.0226 -0.030737 0)
(10.0289 -0.0331748 0)
(10.0351 -0.0349805 0)
(10.0411 -0.0362941 0)
(10.0468 -0.0372407 0)
(10.0524 -0.0378961 0)
(10.0578 -0.038316 0)
(10.063 -0.038547 0)
(10.068 -0.0386271 0)
(10.0729 -0.0385861 0)
(10.0776 -0.038449 0)
(10.0821 -0.0382397 0)
(10.0864 -0.0379887 0)
(10.0907 -0.0377463 0)
(9.99845 -0.00486004 0)
(10.0009 -0.0199562 0)
(10.0093 -0.026592 0)
(10.0168 -0.0291098 0)
(10.0231 -0.0308556 0)
(10.0293 -0.0321449 0)
(10.0356 -0.0331163 0)
(10.0415 -0.0339511 0)
(10.0472 -0.0347091 0)
(10.0527 -0.0353862 0)
(10.058 -0.0359734 0)
(10.063 -0.0364675 0)
(10.0679 -0.0368678 0)
(10.0725 -0.0371747 0)
(10.077 -0.0373892 0)
(10.0812 -0.0375149 0)
(10.0852 -0.0375642 0)
(10.089 -0.0375681 0)
(9.99482 -0.00307364 0)
(9.99601 -0.0254393 0)
(10.0077 -0.0390948 0)
(10.0165 -0.0482222 0)
(10.023 -0.0539824 0)
(10.029 -0.0568017 0)
(10.0346 -0.0577817 0)
(10.0398 -0.057774 0)
(10.0446 -0.0572235 0)
(10.0492 -0.0563685 0)
(10.0536 -0.0553551 0)
(10.0578 -0.0542738 0)
(10.0617 -0.0531764 0)
(10.0654 -0.052088 0)
(10.0689 -0.0510151 0)
(10.0723 -0.0499507 0)
(10.0754 -0.0488899 0)
(10.0783 -0.0478452 0)
(9.98522 0.00584221 0)
(9.98205 0.0250334 0)
(9.99453 0.0367711 0)
(10.0044 0.0324972 0)
(10.0121 0.0227683 0)
(10.0185 0.0128579 0)
(10.0234 0.00381752 0)
(10.0271 -0.00415759 0)
(10.0297 -0.0109976 0)
(10.0316 -0.0167443 0)
(10.0328 -0.021511 0)
(10.0335 -0.0254304 0)
(10.0338 -0.0286274 0)
(10.0338 -0.031209 0)
(10.0334 -0.0332587 0)
(10.0328 -0.0348276 0)
(10.0319 -0.0359323 0)
(10.0304 -0.0364702 0)
(10.0137 -0.317296 0)
(10.0103 -0.326233 0)
(9.99937 -0.27138 0)
(9.98361 -0.224695 0)
(9.96958 -0.187917 0)
(9.95615 -0.158533 0)
(9.94169 -0.135401 0)
(9.9259 -0.117323 0)
(9.909 -0.103131 0)
(9.8912 -0.0918908 0)
(9.8727 -0.0829085 0)
(9.85368 -0.075664 0)
(9.83433 -0.0697635 0)
(9.81483 -0.0649044 0)
(9.79534 -0.0608466 0)
(9.77599 -0.0573786 0)
(9.75698 -0.0542718 0)
(9.73771 -0.0509091 0)
(9.95416 0.913099 0)
(9.95424 0.561025 0)
(9.86669 0.375456 0)
(9.75368 0.258585 0)
(9.64006 0.18057 0)
(9.5295 0.127037 0)
(9.42226 0.0892937 0)
(9.31914 0.0621109 0)
(9.22076 0.0422484 0)
(9.12737 0.0275851 0)
(9.03899 0.0166769 0)
(8.95551 0.0085171 0)
(8.87679 0.00239199 0)
(8.80265 -0.00221091 0)
(8.73289 -0.00566145 0)
(8.66732 -0.0082198 0)
(8.606 -0.0100312 0)
(8.54706 -0.0109355 0)
(0.0320906 -0.0947021 0)
(0.0712475 -0.0768115 0)
(0.094285 -0.0448918 0)
(0.0948251 -0.00886072 0)
(0.072441 0.0273641 0)
(0.0342535 0.0590478 0)
(-0.0252576 0.082404 -2.08927e-19)
(-0.0882196 0.090988 1.63586e-19)
(-0.156908 0.0941268 0)
(-0.229156 0.0953701 1.12068e-19)
(-0.30388 0.0957018 0)
(-0.380417 0.0955042 0)
(-0.458279 0.094928 0)
(-0.53702 0.0940236 -6.84205e-20)
(-0.616255 0.0928352 0)
(-0.69565 0.0914076 0)
(-0.774915 0.0897841 5.38125e-20)
(-0.853805 0.0880047 0)
(-0.932112 0.0861058 0)
(-1.00966 0.0841193 0)
(-1.08631 0.0820733 -4.31045e-20)
(-1.16195 0.0799925 0)
(-1.23649 0.0778977 -3.96962e-20)
(-1.30985 0.075807 0)
(-1.382 0.0737355 0)
(-1.45289 0.071696 -3.59714e-20)
(-1.52252 0.0696992 0)
(-1.59087 0.0677538 3.41202e-20)
(-1.65797 0.0658667 0)
(-1.72381 0.0640435 -3.26226e-20)
(-1.78843 0.0622882 0)
(-1.85185 0.0606038 0)
(-1.91413 0.0589919 0)
(-1.97528 0.0574537 0)
(-2.03537 0.0559891 0)
(-2.09443 0.0545977 2.94932e-20)
(-2.15252 0.0532783 0)
(-2.20969 0.0520296 -5.74901e-20)
(-2.26599 0.0508497 0)
(-2.32146 0.0497366 5.61862e-20)
(-2.37616 0.0486875 0)
(-2.43014 0.0476995 0)
(-2.48345 0.0467696 -5.45049e-20)
(-2.53613 0.0458946 0)
(-2.58824 0.0450711 -5.35235e-20)
(-2.63981 0.0442958 5.30659e-20)
(-2.69088 0.0435653 0)
(-2.74149 0.042876 5.22048e-20)
(-2.79168 0.0422243 5.17972e-20)
(-2.84148 0.0416064 0)
(-2.89091 0.0410183 0)
(-2.94 0.0404559 0)
(-2.98878 0.0399153 0)
(-3.03725 0.0393925 0)
(-3.08544 0.0388835 -4.957e-20)
(-3.13334 0.0383843 0)
(-3.18096 0.0378907 4.88777e-20)
(-3.22829 0.0373982 0)
(-3.27533 0.0369019 0)
(-3.32207 0.0363968 -4.78523e-20)
(-3.36846 0.0358777 0)
(-3.41449 0.0353392 4.71635e-20)
(-3.46013 0.0347757 0)
(-3.50531 0.0341815 0)
(-3.54998 0.0335504 0)
(-3.59409 0.0328758 -4.57262e-20)
(-3.63754 0.0321505 0)
(-3.68025 0.0313669 0)
(-3.72211 0.0305168 -4.45477e-20)
(-3.76302 0.0295912 0)
(-3.80283 0.02858 -4.36861e-20)
(-3.8414 0.0274722 0)
(-3.87855 0.026256 0)
(-3.91411 0.0249188 0)
(-3.94786 0.0234478 4.16928e-20)
(-3.97957 0.0218297 0)
(-4.00898 0.0200504 0)
(-4.03578 0.0180932 3.98617e-20)
(-4.05967 0.0159349 3.91664e-20)
(-4.08033 0.0135443 0)
(-4.09738 0.0108877 3.76223e-20)
(-4.11039 0.00794655 0)
(-4.11881 0.00472541 7.1658e-20)
(-4.12211 0.0012593 0)
(-4.11991 -0.00245621 6.73069e-20)
(-4.11172 -0.00646492 0)
(-4.09699 -0.010786 -6.21733e-20)
(-4.0752 -0.0154277 0)
(-4.04577 -0.0203924 0)
(-4.00815 -0.0256759 0)
(-3.96179 -0.0312665 4.89519e-20)
(-3.9062 -0.0371436 0)
(-3.8409 -0.0432763 -4.05092e-20)
(-3.76551 -0.0496221 0)
(-3.67973 -0.0561261 3.05836e-20)
(-3.58336 -0.0627207 2.49989e-20)
(-3.47637 -0.0693261 1.8963e-20)
(-3.35887 -0.0758508 0)
(-3.23117 -0.0821941 0)
(-3.09375 -0.0882496 0)
(-2.94729 -0.0939093 0)
(-2.79267 -0.0990684 0)
(-2.63094 -0.103632 0)
(-2.46331 -0.107519 0)
(-2.29109 -0.110671 0)
(-2.11566 -0.113051 6.14083e-20)
(-1.93843 -0.114651 7.41907e-20)
(-1.76079 -0.115488 0)
(-1.58404 -0.115605 0)
(-1.4094 -0.115063 0)
(-1.23794 -0.113942 1.37939e-19)
(-1.07055 -0.112338 0)
(-0.907957 -0.110366 0)
(-0.750733 -0.108179 0)
(-0.599236 -0.105985 0)
(-0.453598 -0.103948 -2.67215e-19)
(-0.31362 -0.102355 0)
(-0.180329 -0.100898 0)
(-0.0532991 -0.0977054 3.96343e-19)
(0.0730078 -0.0906037 -4.05151e-19)
(0.186449 -0.0824712 0)
(0.294039 -0.0750164 -3.62664e-19)
(0.39526 -0.0683733 0)
(0.490455 -0.0624671 3.33426e-19)
(0.580038 -0.0572089 0)
(0.664407 -0.0525144 0)
(0.743938 -0.0483115 0)
(0.818987 -0.0445399 0)
(0.889887 -0.0411481 0)
(0.956948 -0.0380924 -5.65229e-19)
(1.02045 -0.0353361 -5.54201e-19)
(1.08067 -0.0328478 0)
(1.13784 -0.0305984 0)
(1.19219 -0.0285603 0)
(1.24393 -0.0267084 5.1931e-19)
(1.29326 -0.0250218 0)
(1.34036 -0.0234842 0)
(1.38539 -0.0220819 0)
(1.42852 -0.020802 4.9447e-19)
(1.46986 -0.019632 -4.89344e-19)
(1.50957 -0.0185607 0)
(1.54774 -0.0175776 0)
(1.58449 -0.0166738 -4.75912e-19)
(1.61992 -0.0158412 -4.71983e-19)
(1.65411 -0.0150729 0)
(1.68715 -0.0143624 0)
(1.71912 -0.0137041 4.61515e-19)
(1.75007 -0.0130928 -4.58405e-19)
(1.78008 -0.0125238 0)
(1.8092 -0.0119933 0)
(1.83748 -0.0114982 -4.50005e-19)
(1.86497 -0.0110348 0)
(1.89171 -0.0105993 0)
(1.91774 -0.0101899 -4.42769e-19)
(1.94309 -0.00980472 0)
(1.96781 -0.00944067 -4.38469e-19)
(1.99192 -0.00909647 0)
(2.01546 -0.00877057 0)
(2.03844 -0.00846033 0)
(2.06089 -0.00816589 4.30882e-19)
(2.08284 -0.00788702 0)
(2.1043 -0.00762116 0)
(2.12531 -0.00736672 0)
(2.14587 -0.007122 0)
(2.166 -0.00688482 0)
(2.1857 -0.00665333 0)
(2.20497 -0.00642433 4.20064e-19)
(2.2238 -0.00619359 4.18741e-19)
(2.24216 -0.00595496 0)
(2.25999 -0.00570063 0)
(2.2772 -0.00541765 0)
(2.29367 -0.00508962 -4.14281e-19)
(2.30917 -0.00468646 0)
(2.32336 -0.00416316 8.2603e-19)
(2.33569 -0.00344275 -8.25807e-19)
(2.34519 -0.00239427 -8.26799e-19)
(2.35036 -0.000731545 8.29075e-19)
(2.34746 0.00244139 -8.33261e-19)
(2.3321 0.00930963 8.42946e-19)
(2.24561 0.0326344 0)
(0.0019271 -0.137985 0)
(-4.93563e-05 -0.0697028 0)
(-0.026743 0.00275424 1.77708e-19)
(-0.0628885 0.0645438 0)
(-0.105454 0.11392 -1.195e-19)
(-0.152923 0.151533 -1.07988e-19)
(-0.205066 0.177914 -4.9288e-20)
(-0.261566 0.195024 -4.55623e-20)
(-0.322602 0.206404 0)
(-0.3874 0.214103 -3.8733e-20)
(-0.455106 0.219261 0)
(-0.524985 0.222502 0)
(-0.59643 0.224199 6.2484e-20)
(-0.668937 0.224609 2.95497e-20)
(-0.74209 0.223932 -5.56325e-20)
(-0.815535 0.222345 -5.28482e-20)
(-0.888976 0.219997 -2.534e-20)
(-0.962161 0.217022 0)
(-1.03488 0.213541 0)
(-1.10696 0.209655 0)
(-1.17825 0.205458 -2.14718e-20)
(-1.24864 0.201029 0)
(-1.31803 0.196437 6.11789e-20)
(-1.38636 0.191743 0)
(-1.45358 0.186999 0)
(-1.51964 0.182247 1.90424e-20)
(-1.58453 0.177526 0)
(-1.64823 0.172867 -1.83039e-20)
(-1.71076 0.168295 -3.57242e-20)
(-1.77211 0.163832 1.76966e-20)
(-1.8323 0.159494 0)
(-1.89137 0.155295 0)
(-1.94934 0.151244 0)
(-2.00624 0.147348 -3.33081e-20)
(-2.06212 0.143611 -3.29409e-20)
(-2.11701 0.140036 -1.64173e-20)
(-2.17095 0.136624 0)
(-2.224 0.133374 3.2233e-20)
(-2.27618 0.130284 0)
(-2.32755 0.127349 -3.17192e-20)
(-2.37816 0.124567 0)
(-2.42804 0.121931 0)
(-2.47723 0.119435 3.10792e-20)
(-2.52579 0.117073 0)
(-2.57374 0.114836 9.17444e-20)
(-2.62113 0.112719 -3.05595e-20)
(-2.66799 0.110712 0)
(-2.71435 0.108807 -3.02636e-20)
(-2.76025 0.106997 -3.01277e-20)
(-2.80571 0.10527 0)
(-2.85075 0.103619 0)
(-2.8954 0.102033 0)
(-2.93967 0.100502 0)
(-2.98356 0.0990153 0)
(-3.0271 0.0975632 2.94234e-20)
(-3.07028 0.0961349 5.82705e-20)
(-3.11309 0.0947194 -2.92097e-20)
(-3.15553 0.0933048 0)
(-3.19758 0.0918788 5.7648e-20)
(-3.23922 0.0904286 -2.85508e-20)
(-3.28042 0.0889406 0)
(-3.32114 0.0874007 -2.86501e-20)
(-3.36133 0.0857942 0)
(-3.40095 0.0841057 0)
(-3.43992 0.0823188 -5.62217e-20)
(-3.47817 0.0804162 2.81011e-20)
(-3.51562 0.0783797 -5.56211e-20)
(-3.55217 0.0761898 5.52845e-20)
(-3.58769 0.0738263 2.75722e-20)
(-3.62208 0.0712675 0)
(-3.65518 0.0684903 2.71383e-20)
(-3.68683 0.0654698 0)
(-3.71687 0.0621791 0)
(-3.74511 0.0585897 0)
(-3.77132 0.0546718 2.59078e-20)
(-3.79528 0.0503951 0)
(-3.81673 0.0457288 5.0493e-20)
(-3.83537 0.0406392 -7.45268e-20)
(-3.85092 0.0350835 -2.43828e-20)
(-3.86308 0.0290037 0)
(-3.87149 0.022335 -2.33396e-20)
(-3.87571 0.0150298 0)
(-3.87522 0.00709007 -4.41773e-20)
(-3.86979 -0.0014425 0)
(-3.85894 -0.0105737 -4.11305e-20)
(-3.84219 -0.0203482 7.96344e-20)
(-3.81905 -0.0307855 3.75549e-20)
(-3.78905 -0.041887 0)
(-3.75168 -0.0536383 0)
(-3.70647 -0.0660085 0)
(-3.65295 -0.0789472 -2.85972e-20)
(-3.59069 -0.0923822 0)
(-3.51932 -0.106216 2.31432e-20)
(-3.43851 -0.120326 0)
(-3.34806 -0.134559 -5.33837e-20)
(-3.24784 -0.148738 -1.3709e-20)
(-3.13786 -0.162658 -1.02371e-20)
(-3.01828 -0.176095 0)
(-2.88941 -0.188813 0)
(-2.75175 -0.200567 0)
(-2.60595 -0.211122 0)
(-2.45284 -0.220258 0)
(-2.2934 -0.22779 2.37741e-20)
(-2.12875 -0.233572 3.25884e-20)
(-1.9601 -0.237513 0)
(-1.78872 -0.23958 -2.7412e-20)
(-1.61589 -0.239801 -3.22233e-20)
(-1.4429 -0.238263 0)
(-1.27093 -0.235102 -8.05942e-20)
(-1.10108 -0.2305 0)
(-0.934332 -0.224666 4.89726e-20)
(-0.771499 -0.217846 0)
(-0.613249 -0.210299 0)
(-0.460064 -0.202322 -1.35642e-19)
(-0.312318 -0.194259 0)
(-0.170062 -0.186278 8.17036e-20)
(-0.0328981 -0.178272 0)
(0.098173 -0.170157 0)
(0.221327 -0.161446 8.92432e-20)
(0.338534 -0.151127 9.36199e-20)
(0.448822 -0.140318 0)
(0.55311 -0.130213 -9.46228e-20)
(0.651677 -0.120883 0)
(0.744818 -0.112326 9.76826e-20)
(0.832848 -0.104491 1.99788e-19)
(0.916085 -0.0973201 0)
(0.994841 -0.0907543 0)
(1.06942 -0.0847412 0)
(1.1401 -0.0792329 0)
(1.20716 -0.0741855 2.11394e-19)
(1.27087 -0.0695596 6.36887e-19)
(1.33146 -0.0653192 0)
(1.38915 -0.0614307 0)
(1.44416 -0.0578618 0)
(1.49669 -0.0545829 -2.18628e-19)
(1.54691 -0.0515672 0)
(1.59499 -0.0487917 0)
(1.64108 -0.0462358 4.42964e-19)
(1.68533 -0.0438798 2.21966e-19)
(1.72786 -0.0417053 2.24248e-19)
(1.7688 -0.0396955 0)
(1.80826 -0.0378355 0)
(1.84633 -0.0361114 2.27103e-19)
(1.88311 -0.0345108 -2.27048e-19)
(1.91868 -0.0330224 0)
(1.95312 -0.0316359 0)
(1.9865 -0.030342 -2.3047e-19)
(2.01889 -0.029132 6.92978e-19)
(2.05034 -0.0279981 0)
(2.08091 -0.0269338 0)
(2.11065 -0.0259338 2.33441e-19)
(2.13961 -0.0249921 0)
(2.16782 -0.0241027 4.69005e-19)
(2.19533 -0.0232622 -2.34881e-19)
(2.22217 -0.0224672 0)
(2.24837 -0.0217132 2.367e-19)
(2.27397 -0.0209977 4.74092e-19)
(2.299 -0.0203186 0)
(2.32348 -0.0196724 0)
(2.34745 -0.0190581 -2.38976e-19)
(2.37092 -0.0184744 0)
(2.39393 -0.0179171 4.79605e-19)
(2.41648 -0.017383 0)
(2.43861 -0.0168691 0)
(2.46032 -0.0163711 0)
(2.48162 -0.0158836 0)
(2.50252 -0.0153991 -2.42295e-19)
(2.52301 -0.0149077 -2.42716e-19)
(2.54306 -0.0143946 0)
(2.56263 -0.01384 0)
(2.58163 -0.0132136 0)
(2.59995 -0.0124723 2.44483e-19)
(2.61738 -0.0115452 0)
(2.63363 -0.0103215 -4.91367e-19)
(2.6482 -0.00861307 4.93038e-19)
(2.66026 -0.00609089 4.9533e-19)
(2.6684 -0.00207064 4.97707e-19)
(2.6696 0.00527089 5.01104e-19)
(2.66254 0.0206201 5.05e-19)
(2.61873 0.0585862 0)
(-0.0310623 -0.0929389 0)
(-0.0627419 0.010436 0)
(-0.105593 0.091588 -1.06125e-19)
(-0.152485 0.156715 -8.18139e-20)
(-0.200957 0.210218 7.10152e-20)
(-0.250695 0.253268 6.4274e-20)
(-0.30246 0.286482 9.6384e-23)
(-0.356862 0.311048 0)
(-0.414066 0.328831 0)
(-0.473761 0.341448 0)
(-0.535492 0.35008 0)
(-0.5988 0.355548 0)
(-0.663269 0.358436 -1.20063e-19)
(-0.728536 0.359185 0)
(-0.794287 0.358148 3.61778e-20)
(-0.860252 0.355621 3.45731e-20)
(-0.926198 0.351858 0)
(-0.991926 0.34708 0)
(-1.05727 0.341482 0)
(-1.12207 0.335233 0)
(-1.18623 0.328481 2.88375e-20)
(-1.24963 0.321355 0)
(-1.3122 0.313966 -2.72946e-20)
(-1.37387 0.306411 0)
(-1.43461 0.298772 0)
(-1.49436 0.29112 0)
(-1.55312 0.283514 -4.98452e-20)
(-1.61086 0.276004 0)
(-1.66758 0.26863 2.41615e-20)
(-1.72328 0.261427 -4.73865e-20)
(-1.77799 0.25442 0)
(-1.8317 0.24763 0)
(-1.88445 0.241074 0)
(-1.93626 0.234762 2.26025e-20)
(-1.98716 0.228701 2.23639e-20)
(-2.03717 0.222896 0)
(-2.08633 0.217349 0)
(-2.13468 0.212057 -4.32881e-20)
(-2.18225 0.207017 -4.29434e-20)
(-2.22907 0.202224 4.26257e-20)
(-2.27519 0.197671 0)
(-2.32063 0.19335 0)
(-2.36544 0.18925 0)
(-2.40964 0.185361 0)
(-2.45328 0.181672 -4.1593e-20)
(-2.49638 0.17817 -4.11684e-20)
(-2.53897 0.174843 4.09849e-20)
(-2.58107 0.171677 0)
(-2.62272 0.168658 0)
(-2.66394 0.165771 0)
(-2.70474 0.163001 0)
(-2.74514 0.160331 -4.02406e-20)
(-2.78515 0.157745 0)
(-2.82479 0.155227 0)
(-2.86405 0.152759 -3.98905e-20)
(-2.90294 0.150323 -3.99828e-20)
(-2.94145 0.147901 0)
(-2.97957 0.145473 7.91464e-20)
(-3.01729 0.143018 -3.9654e-20)
(-3.05458 0.140514 3.95417e-20)
(-3.0914 0.13794 0)
(-3.12774 0.135271 0)
(-3.16353 0.132484 0)
(-3.19872 0.129552 0)
(-3.23326 0.126448 3.88819e-20)
(-3.26706 0.123144 7.71687e-20)
(-3.30004 0.119608 3.85339e-20)
(-3.33211 0.115808 -3.83324e-20)
(-3.36315 0.111711 0)
(-3.39303 0.10728 7.55544e-20)
(-3.42162 0.102479 7.50314e-20)
(-3.44877 0.0972677 7.44485e-20)
(-3.47429 0.0916035 -7.37994e-20)
(-3.498 0.0854422 0)
(-3.5197 0.0787376 -1.08407e-19)
(-3.53915 0.0714417 0)
(-3.5561 0.0635053 3.5252e-20)
(-3.57026 0.0548752 3.45785e-20)
(-3.58135 0.045489 0)
(-3.58911 0.0352723 0)
(-3.59317 0.0241501 6.53727e-20)
(-3.59307 0.0120792 0)
(-3.58852 -0.000923962 6.1947e-20)
(-3.57913 -0.014856 0)
(-3.56447 -0.0297619 -5.77882e-20)
(-3.54409 -0.0456745 -1.10152e-19)
(-3.51753 -0.0626047 0)
(-3.48433 -0.0805413 0)
(-3.44404 -0.0994494 0)
(-3.39621 -0.119267 -4.41548e-20)
(-3.34043 -0.139903 0)
(-3.27629 -0.161227 -3.73285e-20)
(-3.20347 -0.183076 0)
(-3.12169 -0.205239 0)
(-3.03077 -0.227467 4.96215e-20)
(-2.93062 -0.249468 0)
(-2.82129 -0.270914 1.69554e-20)
(-2.70296 -0.29145 0)
(-2.57595 -0.310701 7.6312e-21)
(-2.44076 -0.328291 0)
(-2.29803 -0.343859 0)
(-2.14857 -0.357074 0)
(-1.99331 -0.367662 -4.00388e-20)
(-1.83332 -0.375419 -2.01966e-20)
(-1.66976 -0.380223 0)
(-1.50381 -0.38205 0)
(-1.33671 -0.380965 0)
(-1.16962 -0.377129 0)
(-1.00368 -0.370775 4.80247e-20)
(-0.839911 -0.362213 -1.03142e-19)
(-0.679209 -0.351792 -5.95773e-20)
(-0.522327 -0.339924 1.26616e-19)
(-0.369908 -0.327017 1.38523e-19)
(-0.222309 -0.3135 7.73064e-20)
(-0.0800583 -0.29967 0)
(0.0574421 -0.285485 1.72153e-19)
(0.187668 -0.271089 0)
(0.311477 -0.256441 -1.85924e-19)
(0.428673 -0.241693 -9.76998e-20)
(0.53995 -0.226761 0)
(0.64554 -0.212109 2.04539e-19)
(0.745715 -0.198209 1.06368e-19)
(0.840648 -0.185192 0)
(0.930559 -0.173079 1.09367e-19)
(1.0157 -0.16185 -3.39643e-19)
(1.09635 -0.151462 0)
(1.17277 -0.141865 0)
(1.24525 -0.133008 0)
(1.31404 -0.12484 0)
(1.37941 -0.117311 -2.46841e-19)
(1.44159 -0.110373 -2.51783e-19)
(1.5008 -0.103981 0)
(1.55726 -0.0980904 0)
(1.61116 -0.0926616 0)
(1.66269 -0.0876558 0)
(1.71202 -0.0830367 0)
(1.7593 -0.0787712 0)
(1.80469 -0.074829 -2.72939e-19)
(1.8483 -0.0711823 -7.99729e-22)
(1.89027 -0.0678054 0)
(1.9307 -0.0646746 0)
(1.96971 -0.0617685 -2.82181e-19)
(2.00738 -0.0590669 0)
(2.0438 -0.0565518 2.87388e-19)
(2.07905 -0.0542066 2.88974e-19)
(2.11321 -0.0520159 0)
(2.14633 -0.049966 0)
(2.17849 -0.0480445 -2.95732e-19)
(2.20974 -0.04624 -5.94408e-19)
(2.24012 -0.0445424 0)
(2.2697 -0.0429432 0)
(2.2985 -0.0414346 0)
(2.32658 -0.0400085 -3.05045e-19)
(2.35397 -0.0386582 3.06777e-19)
(2.3807 -0.0373792 0)
(2.40681 -0.0361658 6.1952e-19)
(2.43233 -0.0350137 3.11041e-19)
(2.4573 -0.03392 -6.25932e-19)
(2.48173 -0.0328805 0)
(2.50566 -0.0318916 0)
(2.52911 -0.0309508 -6.34945e-19)
(2.5521 -0.0300535 -3.19178e-19)
(2.57467 -0.0291948 0)
(2.59682 -0.0283695 0)
(2.61858 -0.0275709 0)
(2.63995 -0.0267905 0)
(2.66095 -0.026016 -6.50915e-19)
(2.68155 -0.0252317 0)
(2.70175 -0.0244147 0)
(2.7215 -0.0235329 0)
(2.74074 -0.0225395 0)
(2.75935 -0.021366 0)
(2.77716 -0.0199061 0)
(2.79391 -0.0179894 -6.68434e-19)
(2.80918 -0.0153331 0)
(2.82231 -0.0114293 0)
(2.83234 -0.00531789 -1.36151e-18)
(2.83727 0.00520746 6.84314e-19)
(2.83825 0.0249339 -6.90644e-19)
(2.82067 0.064845 6.92631e-19)
(-0.0498255 0.0183519 0)
(-0.0917081 0.123404 2.69301e-19)
(-0.14133 0.199872 0)
(-0.194351 0.262818 6.18283e-20)
(-0.246845 0.315861 0)
(-0.298667 0.35979 0)
(-0.350737 0.395036 -4.40952e-20)
(-0.403727 0.42237 0)
(-0.457932 0.442929 0)
(-0.513358 0.457873 0)
(-0.569863 0.468202 0)
(-0.62724 0.474718 0)
(-0.685267 0.478057 1.22554e-19)
(-0.743734 0.478729 5.84194e-20)
(-0.802446 0.477159 -5.58184e-20)
(-0.861227 0.473709 0)
(-0.919922 0.468692 0)
(-0.978392 0.462383 0)
(-1.03651 0.455023 0)
(-1.09418 0.446823 0)
(-1.15131 0.437969 4.5017e-20)
(-1.20781 0.428625 4.37923e-20)
(-1.26363 0.418932 -4.26845e-20)
(-1.31871 0.409012 4.16805e-20)
(-1.37301 0.398971 0)
(-1.4265 0.388901 0)
(-1.47916 0.378877 3.9206e-20)
(-1.53097 0.368964 0)
(-1.58192 0.359216 0)
(-1.63202 0.349678 3.73374e-20)
(-1.68127 0.340384 3.67595e-20)
(-1.72967 0.331363 3.62742e-20)
(-1.77725 0.322637 0)
(-1.82401 0.314221 0)
(-1.86999 0.306127 -3.50405e-20)
(-1.9152 0.29836 0)
(-1.95966 0.290924 0)
(-2.00341 0.283818 3.41718e-20)
(-2.04647 0.277038 -3.37018e-20)
(-2.08888 0.270578 3.34463e-20)
(-2.13065 0.26443 0)
(-2.17182 0.258583 0)
(-2.21242 0.253025 6.58023e-20)
(-2.25248 0.247743 0)
(-2.29202 0.242723 6.50935e-20)
(-2.33106 0.237948 9.72803e-20)
(-2.36964 0.233403 -9.6844e-20)
(-2.40777 0.229069 6.42184e-20)
(-2.44549 0.224927 0)
(-2.48279 0.220958 0)
(-2.51971 0.217143 6.35237e-20)
(-2.55625 0.213459 3.177e-20)
(-2.59243 0.209886 0)
(-2.62825 0.206401 0)
(-2.66371 0.202981 3.14995e-20)
(-2.69882 0.199601 6.26401e-20)
(-2.73357 0.196235 0)
(-2.76794 0.192858 -6.25214e-20)
(-2.80193 0.18944 6.21958e-20)
(-2.83551 0.185952 -6.20499e-20)
(-2.86866 0.182365 0)
(-2.90133 0.178645 0)
(-2.93348 0.174758 0)
(-2.96507 0.170669 0)
(-2.99603 0.166339 0)
(-3.0263 0.161728 -6.1094e-20)
(-3.05578 0.156794 0)
(-3.08439 0.151492 0)
(-3.11202 0.145774 0)
(-3.13855 0.139592 -1.19856e-19)
(-3.16385 0.132892 -5.954e-20)
(-3.18776 0.12562 -5.91088e-20)
(-3.21011 0.117718 1.17341e-19)
(-3.23072 0.109125 -5.82061e-20)
(-3.24939 0.099778 5.74767e-20)
(-3.26588 0.0896117 0)
(-3.27996 0.0785591 -5.60445e-20)
(-3.29135 0.0665485 0)
(-3.29977 0.0534997 0)
(-3.30497 0.0393233 0)
(-3.30658 0.0239336 -1.04677e-19)
(-3.30414 0.00729301 5.13009e-20)
(-3.29746 -0.0106041 5.04176e-20)