# vtk DataFile Version 2.0
track0
ASCII
DATASET POLYDATA
POINTS 11935 float
-0.0205 0.001 1e-05
-0.0202034 0.0010001 1e-05
-0.0199069 0.00100036 1e-05
-0.0196103 0.00100073 1e-05
-0.0193137 0.00100121 1e-05
-0.0190172 0.0010018 1e-05
-0.0187132 0.00100305 1e-05
-0.0184093 0.00100349 1e-05
-0.0181054 0.0010039 1e-05
-0.0178015 0.00100429 1e-05
-0.0174976 0.00100465 1e-05
-0.0172058 0.00100557 1e-05
-0.016914 0.00100582 1e-05
-0.0166222 0.00100608 1e-05
-0.0163305 0.00100636 1e-05
-0.0160387 0.00100665 1e-05
-0.0157586 0.00100747 1e-05
-0.0154784 0.00100782 1e-05
-0.0151983 0.00100821 1e-05
-0.0149182 0.00100866 1e-05
-0.0146381 0.00100915 1e-05
-0.0143692 0.00101006 1e-05
-0.0141002 0.00101064 1e-05
-0.0138313 0.00101126 1e-05
-0.0135624 0.00101194 1e-05
-0.0132934 0.00101265 1e-05
-0.0130353 0.00101366 1e-05
-0.0127771 0.00101444 1e-05
-0.0125189 0.00101526 1e-05
-0.0122607 0.00101612 1e-05
-0.0120025 0.00101701 1e-05
-0.0117547 0.00101808 1e-05
-0.0115068 0.00101901 1e-05
-0.0112589 0.00101998 1e-05
-0.0110111 0.00102096 1e-05
-0.0107632 0.00102198 1e-05
-0.0105252 0.00102309 1e-05
-0.0102873 0.00102412 1e-05
-0.0100493 0.00102518 1e-05
-0.00981133 0.00102626 1e-05
-0.00957337 0.00102735 1e-05
-0.00934491 0.00102849 1e-05
-0.00911645 0.00102958 1e-05
-0.00888799 0.0010307 1e-05
-0.00865954 0.00103183 1e-05
-0.00843108 0.00103297 1e-05
-0.00821175 0.00103411 1e-05
-0.00799242 0.00103525 1e-05
-0.00777309 0.00103639 1e-05
-0.00755376 0.00103755 1e-05
-0.00733443 0.00103872 1e-05
-0.00727783 0.00103903 1e-05
-0.00722123 0.00103933 1e-05
-0.00716464 0.00103964 1e-05
-0.00710804 0.00103995 1e-05
-0.00705213 0.00104025 1e-05
-0.00689802 0.0010411 1e-05
-0.00674392 0.00104194 1e-05
-0.00658981 0.0010428 1e-05
-0.0064357 0.00104366 1e-05
-0.0062816 0.00104452 1e-05
-0.00607944 0.00104566 1e-05
-0.00587729 0.0010468 1e-05
-0.00567514 0.00104796 1e-05
-0.00547298 0.00104913 1e-05
-0.00527083 0.0010503 1e-05
-0.00507675 0.00105143 1e-05
-0.00488267 0.00105257 1e-05
-0.0046886 0.00105373 1e-05
-0.00449452 0.00105488 1e-05
-0.00430044 0.00105605 1e-05
-0.00411412 0.00105717 1e-05
-0.0039278 0.00105831 1e-05
-0.00374147 0.00105945 1e-05
-0.00355515 0.0010606 1e-05
-0.00336883 0.00106176 1e-05
-0.00318995 0.00106287 1e-05
-0.00301107 0.001064 1e-05
-0.00283219 0.00106515 1e-05
-0.00265331 0.0010663 1e-05
-0.00247443 0.00106746 1e-05
-0.0023027 0.00106857 1e-05
-0.00213097 0.00106971 1e-05
-0.00195924 0.00107085 1e-05
-0.00178751 0.00107202 1e-05
-0.00161577 0.00107319 1e-05
-0.0014509 0.00107432 1e-05
-0.00128603 0.00107547 1e-05
-0.00112116 0.00107664 1e-05
-0.00095629 0.00107782 1e-05
-0.000791418 0.00107902 1e-05
-0.000633135 0.00108017 1e-05
-0.000474851 0.00108134 1e-05
-0.000316568 0.00108251 1e-05
-0.000158284 0.0010837 1e-05
0 0.00108489 1e-05
0.000105677 0.00108568 1e-05
0.000211355 0.00108648 1e-05
0.000317032 0.00108729 1e-05
0.000422709 0.0010881 1e-05
0.000528387 0.00108892 1e-05
0.000634886 0.00108973 1e-05
0.000741385 0.00109057 1e-05
0.000847884 0.00109142 1e-05
0.000954383 0.00109227 1e-05
0.00106088 0.00109314 1e-05
0.00116821 0.001094 1e-05
0.00127554 0.00109489 1e-05
0.00138286 0.0010958 1e-05
0.00149019 0.00109671 1e-05
0.00159752 0.00109764 1e-05
0.00170568 0.00109856 1e-05
0.00181384 0.00109953 1e-05
0.001922 0.00110051 1e-05
0.00203016 0.0011015 1e-05
0.00213833 0.00110251 1e-05
0.00224733 0.00110352 1e-05
0.00235633 0.00110458 1e-05
0.00246533 0.00110565 1e-05
0.00257433 0.00110675 1e-05
0.00268334 0.00110786 1e-05
0.00279319 0.00110898 1e-05
0.00290304 0.00111015 1e-05
0.00301289 0.00111134 1e-05
0.00312273 0.00111256 1e-05
0.00323259 0.0011138 1e-05
0.00334329 0.00111504 1e-05
0.00345399 0.00111634 1e-05
0.0035647 0.00111766 1e-05
0.0036754 0.00111901 1e-05
0.00378611 0.00112039 1e-05
0.00389767 0.00112177 1e-05
0.00400924 0.00112321 1e-05
0.0041208 0.00112467 1e-05
0.00423236 0.00112617 1e-05
0.00434393 0.00112769 1e-05
0.00445636 0.00112921 1e-05
0.00456879 0.0011308 1e-05
0.00468122 0.00113241 1e-05
0.00479365 0.00113405 1e-05
0.00490609 0.00113571 1e-05
0.0050194 0.00113739 1e-05
0.0051327 0.00113912 1e-05
0.00524601 0.00114087 1e-05
0.00535931 0.00114266 1e-05
0.00547262 0.00114447 1e-05
0.00558681 0.00114629 1e-05
0.00570099 0.00114817 1e-05
0.00581518 0.00115007 1e-05
0.00592937 0.001152 1e-05
0.00604356 0.00115395 1e-05
0.00615863 0.00115592 1e-05
0.00627371 0.00115794 1e-05
0.00638878 0.00115998 1e-05
0.00650385 0.00116205 1e-05
0.00661893 0.00116415 1e-05
0.0067349 0.00116625 1e-05
0.00685087 0.00116841 1e-05
0.00696684 0.00117059 1e-05
0.0070828 0.0011728 1e-05
0.00719878 0.00117503 1e-05
0.00731565 0.00117727 1e-05
0.00743252 0.00117956 1e-05
0.00754939 0.00118187 1e-05
0.00766626 0.00118421 1e-05
0.00778313 0.00118657 1e-05
0.00790091 0.00118893 1e-05
0.00801869 0.00119135 1e-05
0.00813647 0.0011938 1e-05
0.00825425 0.00119626 1e-05
0.00837203 0.00119874 1e-05
0.00849073 0.00120122 1e-05
0.00860942 0.00120376 1e-05
0.00872812 0.00120632 1e-05
0.00884681 0.0012089 1e-05
0.00896551 0.0012115 1e-05
0.00908513 0.0012141 1e-05
0.00920475 0.00121675 1e-05
0.00932436 0.00121942 1e-05
0.00944398 0.00122211 1e-05
0.0095636 0.00122482 1e-05
0.00968415 0.00122752 1e-05
0.0098047 0.00123028 1e-05
0.00992524 0.00123306 1e-05
0.0100458 0.00123585 1e-05
0.0101663 0.00123865 1e-05
0.0102878 0.00124145 1e-05
0.0104093 0.00124431 1e-05
0.0105308 0.00124719 1e-05
0.0106523 0.00125008 1e-05
0.0107738 0.00125297 1e-05
0.0108962 0.00125586 1e-05
0.0110186 0.0012588 1e-05
0.0111411 0.00126177 1e-05
0.0112635 0.00126475 1e-05
0.0113859 0.00126773 1e-05
0.0115093 0.0012707 1e-05
0.0116327 0.00127372 1e-05
0.0117561 0.00127677 1e-05
0.0118794 0.00127984 1e-05
0.0120028 0.00128289 1e-05
0.0121272 0.00128593 1e-05
0.0122515 0.00128902 1e-05
0.0123759 0.00129215 1e-05
0.0125002 0.00129528 1e-05
0.0126245 0.0012984 1e-05
0.0127498 0.0013015 1e-05
0.0128752 0.00130466 1e-05
0.0130005 0.00130785 1e-05
0.0131258 0.00131105 1e-05
0.0132511 0.00131422 1e-05
0.0133774 0.00131738 1e-05
0.0135036 0.00132059 1e-05
0.0136299 0.00132384 1e-05
0.0137562 0.00132709 1e-05
0.0138825 0.00133031 1e-05
0.0140098 0.00133352 1e-05
0.014137 0.00133677 1e-05
0.0142643 0.00134007 1e-05
0.0143915 0.00134336 1e-05
0.0145188 0.00134662 1e-05
0.0146471 0.00134987 1e-05
0.0147753 0.00135315 1e-05
0.0149036 0.00135648 1e-05
0.0150318 0.00135981 1e-05
0.0151601 0.00136309 1e-05
0.0152893 0.00136637 1e-05
0.0154186 0.00136968 1e-05
0.0155478 0.00137303 1e-05
0.0156771 0.00137638 1e-05
0.0158063 0.00137968 1e-05
0.0159366 0.00138298 1e-05
0.0160668 0.00138631 1e-05
0.0161971 0.00138967 1e-05
0.0163273 0.00139302 1e-05
0.0164576 0.00139634 1e-05
0.0165889 0.00139965 1e-05
0.0167201 0.00140299 1e-05
0.0168514 0.00140635 1e-05
0.0169827 0.0014097 1e-05
0.0171139 0.00141303 1e-05
0.0172462 0.00141634 1e-05
0.0173785 0.00141967 1e-05
0.0175108 0.00142302 1e-05
0.0176431 0.00142636 1e-05
0.0177754 0.00142968 1e-05
0.0179087 0.00143298 1e-05
0.018042 0.0014363 1e-05
0.0181753 0.00143963 1e-05
0.0183087 0.00144296 1e-05
0.018442 0.00144625 1e-05
0.0185763 0.00144954 1e-05
0.0187107 0.00145284 1e-05
0.018845 0.00145614 1e-05
0.0189794 0.00145943 1e-05
0.0191137 0.00146269 1e-05
0.0192491 0.00146596 1e-05
0.0193845 0.00146922 1e-05
0.0195199 0.00147248 1e-05
0.0196553 0.00147573 1e-05
0.0197907 0.00147895 1e-05
0.0199272 0.00148218 1e-05
0.0200636 0.00148539 1e-05
0.0202001 0.0014886 1e-05
0.0203365 0.00149179 1e-05
0.020473 0.00149497 1e-05
0.0206105 0.00149814 1e-05
0.020748 0.0015013 1e-05
0.0208855 0.00150445 1e-05
0.021023 0.00150757 1e-05
0.0211606 0.00151068 1e-05
0.0212991 0.00151379 1e-05
0.0214377 0.00151688 1e-05
0.0215763 0.00151995 1e-05
0.0217149 0.001523 1e-05
0.0218535 0.00152603 1e-05
0.0219931 0.00152907 1e-05
0.0221328 0.00153208 1e-05
0.0222724 0.00153506 1e-05
0.0224121 0.00153802 1e-05
0.0225517 0.00154097 1e-05
0.0226925 0.00154391 1e-05
0.0228332 0.00154683 1e-05
0.022974 0.00154971 1e-05
0.0231147 0.00155257 1e-05
0.0232555 0.00155541 1e-05
0.0233973 0.00155825 1e-05
0.0235391 0.00156106 1e-05
0.023681 0.00156383 1e-05
0.0238228 0.00156657 1e-05
0.0239647 0.00156929 1e-05
0.0241076 0.00157202 1e-05
0.0242505 0.0015747 1e-05
0.0243935 0.00157734 1e-05
0.0245364 0.00157995 1e-05
0.0246794 0.00158254 1e-05
0.0248234 0.00158513 1e-05
0.0249675 0.00158767 1e-05
0.0251115 0.00159017 1e-05
0.0252556 0.00159264 1e-05
0.0253996 0.00159507 1e-05
0.0255448 0.00159751 1e-05
0.02569 0.0015999 1e-05
0.0258351 0.00160224 1e-05
0.0259803 0.00160454 1e-05
0.0261255 0.0016068 1e-05
0.0262718 0.00160907 1e-05
0.0264181 0.00161128 1e-05
0.0265644 0.00161344 1e-05
0.0267107 0.00161556 1e-05
0.026857 0.00161764 1e-05
0.0270044 0.00161972 1e-05
0.0271519 0.00162174 1e-05
0.0272993 0.0016237 1e-05
0.0274468 0.00162562 1e-05
0.0275942 0.00162749 1e-05
0.0277428 0.00162936 1e-05
0.0278914 0.00163115 1e-05
0.0280399 0.0016329 1e-05
0.0281885 0.00163458 1e-05
0.0283371 0.00163622 1e-05
0.0284869 0.00163785 1e-05
0.0286366 0.0016394 1e-05
0.0287863 0.00164089 1e-05
0.0289361 0.00164233 1e-05
0.0290858 0.00164371 1e-05
0.0292367 0.00164506 1e-05
0.0293876 0.00164634 1e-05
0.0295385 0.00164755 1e-05
0.0296894 0.00164869 1e-05
0.0298403 0.00164978 1e-05
0.0299924 0.00165084 1e-05
0.0301445 0.00165181 1e-05
0.0302966 0.0016527 1e-05
0.0304487 0.00165353 1e-05
0.0306007 0.00165429 1e-05
0.030754 0.00165502 1e-05
0.0309072 0.00165566 1e-05
0.0310605 0.00165621 1e-05
0.0312138 0.00165669 1e-05
0.031367 0.00165711 1e-05
0.0315215 0.00165748 1e-05
0.0316759 0.00165775 1e-05
0.0318304 0.00165793 1e-05
0.0319848 0.00165804 1e-05
0.0321393 0.00165807 1e-05
0.0322949 0.00165805 1e-05
0.0324506 0.00165792 1e-05
0.0326062 0.0016577 1e-05
0.0327619 0.0016574 1e-05
0.0329175 0.00165701 1e-05
0.0330744 0.00165657 1e-05
0.0332313 0.00165601 1e-05
0.0333881 0.00165535 1e-05
0.033545 0.0016546 1e-05
0.0337019 0.00165376 1e-05
0.0338599 0.00165285 1e-05
0.034018 0.00165183 1e-05
0.0341761 0.00165069 1e-05
0.0343342 0.00164945 1e-05
0.0344923 0.00164813 1e-05
[...]
POINT_DATA 11935
 FIELD attributes 2
p 1 11935 float
-4.9735 -4.96568 -4.95745 -4.94918 -4.94087 -4.94104 -4.91337 -4.92868 -4.94398 -4.95925 -5.01938 -5.02431 -5.06174 -5.09917 -5.1366 -5.19656 -5.19412 -5.21919 -5.24428 -5.26938 -5.31365 -5.31524 -5.33609 -5.35695 -5.37784 -5.4131 -5.41953 -5.43816 -5.4568 -5.47546 -5.50319 -5.51108 -5.52657 -5.54207 -5.55757 -5.57847 -5.58661 -5.59928 -5.61196 -5.62465 -5.64028 -5.64836 -5.65888 -5.6694 -5.67992 -5.69174 -5.6994 -5.70811 -5.71682 -5.72554 -5.73446 -5.73619 -5.73808 -5.73997 -5.74186 -5.74373 -5.74889 -5.75405 -5.75921 -5.76437 -5.76914 -5.77487 -5.78029 -5.78571 -5.79114 -5.7958 -5.80021 -5.80399 -5.80777 -5.81155 -5.81433 -5.81727 -5.81934 -5.82141 -5.82348 -5.82441 -5.82577 -5.82608 -5.82638 -5.82669 -5.82584 -5.82578 -5.82459 -5.82339 -5.8222 -5.81997 -5.81979 -5.81888 -5.81797 -5.81706 -5.81553 -5.81568 -5.81431 -5.81295 -5.81158 -5.80872 -5.80699 -5.80242 -5.79784 -5.79327 -5.78711 -5.78478 -5.77863 -5.77247 -5.76631 -5.75812 -5.75793 -5.75324 -5.74855 -5.74387 -5.73588 -5.73786 -5.73431 -5.73078 -5.72724 -5.71894 -5.72191 -5.71898 -5.71606 -5.71315 -5.70492 -5.70915 -5.7079 -5.70665 -5.70541 -5.69893 -5.705 -5.70628 -5.70757 -5.70886 -5.70527 -5.71329 -5.71729 -5.72129 -5.72531 -5.72499 -5.73489 -5.74155 -5.74822 -5.75489 -5.75794 -5.76966 -5.77894 -5.78822 -5.79751 -5.80391 -5.81748 -5.82932 -5.84115 -5.853 -5.86263 -5.87807 -5.89234 -5.90663 -5.92091 -5.93352 -5.9508 -5.96737 -5.98394 -6.00051 -6.01579 -6.03488 -6.05358 -6.07228 -6.09099 -6.10864 -6.12946 -6.15014 -6.17083 -6.1915 -6.21126 -6.23371 -6.25622 -6.27873 -6.30116 -6.32285 -6.3468 -6.37094 -6.39512 -6.41916 -6.44261 -6.46788 -6.49348 -6.51917 -6.54469 -6.56975 -6.59616 -6.62301 -6.65008 -6.67697 -6.70357 -6.73092 -6.75881 -6.78713 -6.81533 -6.84342 -6.87153 -6.90023 -6.92968 -6.95918 -6.98872 -7.01742 -7.04673 -7.07719 -7.10799 -7.13894 -7.16812 -7.1978 -7.22918 -7.26131 -7.29362 -7.32319 -7.35304 -7.38525 -7.41873 -7.45232 -7.48221 -7.5121 -7.54508 -7.57985 -7.61462 -7.64482 -7.67502 -7.70851 -7.74434 -7.78018 -7.81069 -7.84121 -7.87515 -7.9119 -7.94865 -7.97953 -8.0104 -8.04475 -8.08227 -8.11978 -8.15107 -8.18237 -8.21708 -8.2552 -8.29331 -8.32509 -8.35687 -8.39191 -8.43047 -8.46903 -8.50137 -8.5337 -8.56904 -8.60789 -8.64674 -8.6797 -8.71265 -8.74827 -8.78727 -8.82627 -8.85991 -8.89354 -8.92943 -8.96845 -9.00748 -9.04184 -9.07623 -9.11244 -9.15128 -9.19023 -9.22535 -9.26062 -9.29714 -9.33562 -9.37441 -9.41029 -9.44636 -9.48316 -9.52132 -9.5599 -9.59652 -9.63328 -9.67034 -9.70825 -9.74657 -9.78393 -9.82126 -9.85855 -9.89629 -9.93434 -9.97239 -10.0102 -10.0477 -10.0853 -10.1231 -10.1618 -10.2 -10.2377 -10.2753 -10.3128 -10.3521 -10.3906 -10.4284 -10.466 -10.5033 -10.5431 -10.5818 -10.6199 -10.6575 -10.6946 -10.7349 -10.7738 -10.812 -10.8498 -10.8866 -10.9275 -10.9666 -11.005 -11.043 -11.0798 -11.1215 -11.1608 -11.1992 -11.2372 -11.2736 -11.3159 -11.3551 -11.3934 -11.431 -11.4667 -11.5089 -11.548 -11.5859 -11.6232 -11.6584 -11.7003 -11.7392 -11.777 -11.814 -11.8489 -11.8906 -11.9295 -11.9671 -12.0037 -12.0382 -12.0799 -12.1187 -12.156 -12.1921 -12.2261 -12.2675 -12.3064 -12.3433 -12.3786 -12.4121 -12.4531 -12.492 -12.5283 -12.5626 -12.5955 -12.636 -12.6748 -12.7105 -12.7437 -12.7757 -12.8156 -12.8545 -12.8893 -12.921 -12.9521 -12.9913 -13.0303 -13.0641 -13.094 -13.124 -13.1622 -13.2005 -13.2333 -13.2619 -13.2906 -13.3277 -13.3648 -13.3967 -13.4237 -13.4508 -13.4866 -13.5224 -13.5533 -13.5784 -13.6036 -13.6378 -13.6721 -13.7018 -13.7248 -13.7477 -13.7801 -13.8112 -13.8385 -13.8613 -13.8817 -13.9119 -13.9389 -13.9635 -13.9866 -14.004 -14.0317 -14.0535 -14.0751 -14.0969 -14.1128 -14.135 -14.1531 -14.1713 -14.1896 -14.2061 -14.2129 -14.2184 -14.2238 -14.2293 -14.2344 -14.2437 -14.2531 -14.2625 -14.272 -14.2793 -14.2932 -14.3038 -14.3145 -14.3254 -14.3301 -14.3443 -14.3512 -14.3569 -14.3591 -14.3572 -14.3664 -14.3753 -14.3745 -14.366 -14.3577 -14.3609 -14.3643 -14.3594 -14.3436 -14.328 -14.3245 -14.3157 -14.302 -14.2881 -14.2643 -14.2522 -14.232 -14.212 -14.1922 -14.1755 -14.1729 -14.1702 -14.1676 -14.165 -14.161 -14.1336 -14.1044 -14.0756 -14.0464 -14.0054 -13.9768 -13.9449 -13.9054 -13.8524 -13.7996 -13.7595 -13.7193 -13.6645 -13.6034 -13.5374 -13.4944 -13.4393 -13.3832 -13.3272 -13.2789 -13.2658 -13.2527 -13.2397 -13.2261 -13.2105 -13.1365 -13.0583 -12.9806 -12.8967 -12.8059 -12.7203 -12.6351 -12.5387 -12.4311 -12.3224 -12.2573 -12.1858 -12.1107 -12.0358 -11.9687 -11.9251 -11.8815 -11.8381 -11.7929 -11.744 -11.6182 -11.4847 -11.351 -11.204 -11.0545 -10.906 -10.7532 -10.5886 -10.4246 -10.2549 -10.2284 -10.2005 -10.1711 -10.1417 -10.1131 -9.96031 -9.80816 -9.65667 -9.49668 -9.32652 -9.12894 -8.93231 -8.71824 -8.49578 -8.26776 -8.19241 -8.11497 -8.03347 -7.95208 -7.87534 -7.7197 -7.56465 -7.41018 -7.24832 -7.08096 -6.83276 -6.58591 -6.33804 -6.08893 -5.83446 -5.77513 -5.71694 -5.66321 -5.60955 -5.55778 -5.37153 -5.18607 -5.00141 -4.83074 -4.66229 -4.44572 -4.23663 -4.05886 -3.88208 -3.72483 -3.71712 -3.70942 -3.70172 -3.69486 -3.68815 -3.51955 -3.35339 -3.18798 -3.04084 -2.89425 -2.80322 -2.713 -2.62719 -2.54161 -2.45951 -2.40435 -2.34925 -2.29424 -2.23896 -2.18351 -2.0396 -1.8962 -1.75237 -1.61064 -1.46808 -1.42759 -1.38698 -1.34506 -1.30318 -1.2619 -1.15404 -1.04635 -0.938821 -0.828214 -0.716575 -0.567473 -0.418179 -0.265854 -0.113792 0.0322718 0.0378473 0.0434225 0.0489974 0.0546669 0.0603568 0.22169 0.381788 0.541691 0.70316 0.865639 0.971042 1.07646 1.18237 1.28821 1.39208 1.4492 1.50629 1.56337 1.62066 1.67809 1.8434 2.00862 2.17136 2.3334 2.49597 2.55817 2.62041 2.6829 2.74539 2.80744 2.90879 3.01013 3.11145 3.21372 3.31678 3.47903 3.64126 3.80334 3.96413 4.12505 4.20629 4.28773 4.36948 4.45123 4.53299 4.60936 4.68574 4.76212 4.83704 4.911 5.06779 5.22458 5.37565 5.52258 5.66938 5.76188 5.85295 5.94168 6.03042 6.11969 6.17507 6.23046 6.28585 6.33971 6.39255 6.53487 6.6762 6.81345 6.94547 7.07705 7.17307 7.26722 7.35838 7.44956 7.54216 7.57894 7.61572 7.6525 7.68812 7.72292 7.84907 7.97302 8.09583 8.21225 8.32803 8.42727 8.5243 8.618 8.71174 8.80821 8.82587 8.84353 8.8612 8.87826 8.89488 9.0041 9.11165 9.21921 9.32146 9.42183 9.52444 9.62468 9.72115 9.81767 9.91305 9.91684 9.92051 9.92406 9.92761 9.93116 10.0202 10.1092 10.1982 10.2842 10.3669 10.4551 10.5433 10.626 10.7081 10.788 10.816 10.8431 10.8693 10.8956 10.9224 10.9742 11.0261 11.078 11.1282 11.1764 11.2516 11.3268 11.3986 11.4672 11.535 11.5915 11.6458 11.6986 11.7514 11.8076 11.8195 11.8314 11.8434 11.855 11.8661 11.9291 11.9912 12.0533 12.1128 12.1702 12.2292 12.2881 12.3434 12.3978 12.4509 12.4813 12.5102 12.5386 12.567 12.5969 12.6198 12.6426 12.6655 12.6879 12.7092 12.7589 12.8075 12.8559 12.9018 12.9467 12.9927 13.0386 13.0817 13.1242 13.1657 13.1956 13.2238 13.2518 13.2798 13.31 13.3217 13.3333 13.3449 13.3565 13.3674 13.4057 13.4434 13.481 13.5177 13.5528 13.5886 13.6244 13.6587 13.6914 13.7239 13.7571 13.7892 13.8204 13.8515 13.8818 13.8979 13.9132 13.9284 13.9436 13.9599 13.9736 13.9872 14.0008 14.0145 14.0274 14.0551 14.0823 14.1095 14.1362 14.1618 14.1877 14.2136 14.2386 14.2624 14.2862 14.3102 14.3342 14.3569 14.3793 14.4013 14.4237 14.4451 14.4662 14.4874 14.5081 14.5191 14.5296 14.5401 14.5506 14.5619 14.571 14.5802 14.5893 14.5985 14.6073 14.6261 14.6447 14.6632 14.6818 14.6995 14.7172 14.7346 14.752 14.7688 14.7853 14.8018 14.8183 14.8344 14.8499 14.8654 14.8808 14.8963 14.9111 14.9256 14.9401 14.9546 14.9688 14.9826 14.9964 15.01 15.0236 15.0366 15.0496 15.0627 15.0755 15.0866 15.0974 15.1083 15.1191 15.1313 15.1324 15.1336 15.1347 15.1358 15.137 15.1486 15.1602 15.1718 15.1834 15.1948 15.2057 15.2167 15.2276 15.2385 15.2491 15.2595 15.2699 15.2802 15.2904 15.3004 15.3102 15.32 15.3297 15.3392 15.3487 15.358 15.3672 15.3764 15.3854 15.3943 15.4031 15.4119 15.4205 15.429 15.4375 15.4459 15.4542 15.4623 15.4704 15.4784 15.4863 15.4942 15.5019 15.5096 15.5172 15.5247 15.5321 15.5394 15.5468 15.554 15.5612 15.5682 15.5751 15.5821 15.589 15.5958 15.6024 15.6091 15.6157 15.6223 15.6287 15.6351 15.6414 15.6477 15.654 15.6601 15.6662 15.6722 15.6782 15.6843 15.685 15.6858 15.6866 15.6873 15.6881 15.6931 15.6981 15.7031 15.7081 15.7131 15.7186 15.7242 15.7297 15.7352 15.7407 15.746 15.7512 15.7565 15.7618 15.767 15.772 15.7771 15.7821 15.7872 15.7922 15.797 15.8018 15.8066 15.8115 15.8162 15.8208 15.8254 15.83 15.8346 15.8392 15.8436 15.848 15.8524 15.8568 15.8612 15.8654 15.8696 15.8738 15.878 15.8822 15.8862 15.8902 15.8942 15.8982 15.9022 15.906 15.9098 15.9137 15.9175 15.9213 15.925 15.9286 15.9323 15.9359 15.9396 15.943 15.9465 15.95 15.9534 15.9569 15.9602 15.9635 15.9668 15.9701 15.9734 15.9765 15.9797 15.9828 15.9859 15.9891 15.992 15.995 15.9979 16.0009 16.0039 16.0067 16.0095 16.0123 16.0151 16.0179 16.0205 16.0232 16.0258 16.0284 16.0311 16.0336 16.036 16.0385 16.041 16.0435 16.0458 16.0481 16.0504 16.0527 16.055 16.0572 16.0593 16.0614 16.0636 16.0657 16.0677 16.0697 16.0717 16.0737 16.0757 16.0775 16.0794 16.0812 16.083 16.0849 16.0865 16.0882 16.0899 16.0916 16.0933 16.0948 16.0964 16.0979 16.0994 16.101 16.1024 16.1038 16.1052 16.1067 16.1081 16.1094 16.1107 16.112 16.1133 16.1147 16.1159 16.1171 16.1184 16.1196 16.1209 16.1221 16.1233 16.1246 16.1258 16.127 16.1283 16.1296 16.1308 16.1321 16.1334 16.1348 16.1362 16.1377 16.1391 16.1406 16.1422 16.144 16.1458 16.1475 16.1493 16.1514 16.1537 16.1559 16.1582 16.1605 16.1633 16.1663 16.1692 16.1722 16.175 16.1788 16.1831 16.1873 16.1916 16.1957 16.1993 16.2023 16.2053 16.2082 16.2091 16.212 16.2198 16.2275 16.2351 16.2466 16.2537 16.2483 16.2429 16.2376 16.2296 16.2222 16.2139 16.2057 16.1975 16.1882 16.1671 16.1459 16.1247 16.1034 16.0797 16.0422 16.0058 15.9693 15.9329 15.8964 15.8585 15.8209 15.7834 15.7458 15.7077 15.6678 15.6273 15.5865 15.5452 15.503 15.4589 15.4144 15.3694 15.3234 15.2771 15.2286 15.1801 15.1306 15.0799 15.0293 14.9763 14.9232 14.8689 14.8133 14.7576 14.6994 14.6412 14.5814 14.5201 14.4588 14.3947 14.3305 14.2647 14.1969 14.1292 14.0584 13.9873 13.9144 13.8399 13.7649 13.6867 13.6075 13.5268 13.445 13.3619 13.2753 13.1868 13.0974 13.0074 12.9152 12.8192 12.7203 12.6211 12.5219 12.4196 12.3126 12.2024 12.0922 11.9819 11.8691 11.7493 11.6266 11.504 11.3814 11.2567 11.1223 10.9857 10.849 10.7124 10.5744 10.4235 10.271 10.1186 9.96618 9.81331 9.74429 9.67477 9.60525 9.53573 9.45637 9.35747 9.25857 9.15966 9.06074 8.96112 8.77153 8.58117 8.3908 8.20041 8.00813 7.79526 7.57909 7.36291 7.1467 6.92563 6.68805 6.44917 6.21029 5.9714 5.73079 5.46245 5.16987 4.87721 4.58448 4.26315 3.93789 3.66585 3.39341 3.12059 2.90762 2.66222 2.10556 1.55189 0.9564 0