# vtk DataFile Version 2.0
track0
ASCII
DATASET POLYDATA
POINTS 11935 float
-0.0205 0.001 1e-05
-0.0202034 0.0010001 1e-05
-0.0199069 0.00100036 1e-05
-0.0196103 0.00100073 1e-05
-0.0193137 0.00100121 1e-05
-0.0190172 0.0010018 1e-05
-0.0187132 0.00100305 1e-05
-0.0184093 0.00100349 1e-05
-0.0181054 0.0010039 1e-05
-0.0178015 0.00100429 1e-05
-0.0174976 0.00100465 1e-05
-0.0172058 0.00100557 1e-05
-0.016914 0.00100582 1e-05
-0.0166222 0.00100608 1e-05
-0.0163305 0.00100636 1e-05
-0.0160387 0.00100665 1e-05
-0.0157586 0.00100747 1e-05
-0.0154784 0.00100782 1e-05
-0.0151983 0.00100821 1e-05
-0.0149182 0.00100866 1e-05
-0.0146381 0.00100915 1e-05
-0.0143692 0.00101006 1e-05
-0.0141002 0.00101064 1e-05
-0.0138313 0.00101126 1e-05
-0.0135624 0.00101194 1e-05
-0.0132934 0.00101265 1e-05
-0.0130353 0.00101366 1e-05
-0.0127771 0.00101444 1e-05
-0.0125189 0.00101526 1e-05
-0.0122607 0.00101612 1e-05
-0.0120025 0.00101701 1e-05
-0.0117547 0.00101808 1e-05
-0.0115068 0.00101901 1e-05
-0.0112589 0.00101998 1e-05
-0.0110111 0.00102096 1e-05
-0.0107632 0.00102198 1e-05
-0.0105252 0.00102309 1e-05
-0.0102873 0.00102412 1e-05
-0.0100493 0.00102518 1e-05
-0.00981133 0.00102626 1e-05
-0.00957337 0.00102735 1e-05
-0.00934491 0.00102849 1e-05
-0.00911645 0.00102958 1e-05
-0.00888799 0.0010307 1e-05
-0.00865954 0.00103183 1e-05
-0.00843108 0.00103297 1e-05
-0.00821175 0.00103411 1e-05
-0.00799242 0.00103525 1e-05
-0.00777309 0.00103639 1e-05
-0.00755376 0.00103755 1e-05
-0.00733443 0.00103872 1e-05
-0.00727783 0.00103903 1e-05
-0.00722123 0.00103933 1e-05
-0.00716464 0.00103964 1e-05
-0.00710804 0.00103995 1e-05
-0.00705213 0.00104025 1e-05
-0.00689802 0.0010411 1e-05
-0.00674392 0.00104194 1e-05
-0.00658981 0.0010428 1e-05
-0.0064357 0.00104366 1e-05
-0.0062816 0.00104452 1e-05
-0.00607944 0.00104566 1e-05
-0.00587729 0.0010468 1e-05
-0.00567514 0.00104796 1e-05
-0.00547298 0.00104913 1e-05
-0.00527083 0.0010503 1e-05
-0.00507675 0.00105143 1e-05
-0.00488267 0.00105257 1e-05
-0.0046886 0.00105373 1e-05
-0.00449452 0.00105488 1e-05
-0.00430044 0.00105605 1e-05
-0.00411412 0.00105717 1e-05
-0.0039278 0.00105831 1e-05
-0.00374147 0.00105945 1e-05
-0.00355515 0.0010606 1e-05
-0.00336883 0.00106176 1e-05
-0.00318995 0.00106287 1e-05
-0.00301107 0.001064 1e-05
-0.00283219 0.00106515 1e-05
-0.00265331 0.0010663 1e-05
-0.00247443 0.00106746 1e-05
-0.0023027 0.00106857 1e-05
-0.00213097 0.00106971 1e-05
-0.00195924 0.00107085 1e-05
-0.00178751 0.00107202 1e-05
-0.00161577 0.00107319 1e-05
-0.0014509 0.00107432 1e-05
-0.00128603 0.00107547 1e-05
-0.00112116 0.00107664 1e-05
-0.00095629 0.00107782 1e-05
-0.000791418 0.00107902 1e-05
-0.000633135 0.00108017 1e-05
-0.000474851 0.00108134 1e-05
-0.000316568 0.00108251 1e-05
-0.000158284 0.0010837 1e-05
0 0.00108489 1e-05
0.000105677 0.00108568 1e-05
0.000211355 0.00108648 1e-05
0.000317032 0.00108729 1e-05
0.000422709 0.0010881 1e-05
0.000528387 0.00108892 1e-05
0.000634886 0.00108973 1e-05
0.000741385 0.00109057 1e-05
0.000847884 0.00109142 1e-05
0.000954383 0.00109227 1e-05
0.00106088 0.00109314 1e-05
0.00116821 0.001094 1e-05
0.00127554 0.00109489 1e-05
0.00138286 0.0010958 1e-05
0.00149019 0.00109671 1e-05
0.00159752 0.00109764 1e-05
0.00170568 0.00109856 1e-05
0.00181384 0.00109953 1e-05
0.001922 0.00110051 1e-05
0.00203016 0.0011015 1e-05
0.00213833 0.00110251 1e-05
0.00224733 0.00110352 1e-05
0.00235633 0.00110458 1e-05
0.00246533 0.00110565 1e-05
0.00257433 0.00110675 1e-05
0.00268334 0.00110786 1e-05
0.00279319 0.00110898 1e-05
0.00290304 0.00111015 1e-05
0.00301289 0.00111134 1e-05
0.00312273 0.00111256 1e-05
0.00323259 0.0011138 1e-05
0.00334329 0.00111504 1e-05
0.00345399 0.00111634 1e-05
0.0035647 0.00111766 1e-05
0.0036754 0.00111901 1e-05
0.00378611 0.00112039 1e-05
0.00389767 0.00112177 1e-05
0.00400924 0.00112321 1e-05
0.0041208 0.00112467 1e-05
0.00423236 0.00112617 1e-05
0.00434393 0.00112769 1e-05
0.00445636 0.00112921 1e-05
0.00456879 0.0011308 1e-05
0.00468122 0.00113241 1e-05
0.00479365 0.00113405 1e-05
0.00490609 0.00113571 1e-05
0.0050194 0.00113739 1e-05
0.0051327 0.00113912 1e-05
0.00524601 0.00114087 1e-05
0.00535931 0.00114266 1e-05
0.00547262 0.00114447 1e-05
0.00558681 0.00114629 1e-05
0.00570099 0.00114817 1e-05
0.00581518 0.00115007 1e-05
0.00592937 0.001152 1e-05
0.00604356 0.00115395 1e-05
0.00615863 0.00115592 1e-05
0.00627371 0.00115794 1e-05
0.00638878 0.00115998 1e-05
0.00650385 0.00116205 1e-05
0.00661893 0.00116415 1e-05
0.0067349 0.00116625 1e-05
0.00685087 0.00116841 1e-05
0.00696684 0.00117059 1e-05
0.0070828 0.0011728 1e-05
0.00719878 0.00117503 1e-05
0.00731565 0.00117727 1e-05
0.00743252 0.00117956 1e-05
0.00754939 0.00118187 1e-05
0.00766626 0.00118421 1e-05
0.00778313 0.00118657 1e-05
0.00790091 0.00118893 1e-05
0.00801869 0.00119135 1e-05
0.00813647 0.0011938 1e-05
0.00825425 0.00119626 1e-05
0.00837203 0.00119874 1e-05
0.00849073 0.00120122 1e-05
0.00860942 0.00120376 1e-05
0.00872812 0.00120632 1e-05
0.00884681 0.0012089 1e-05
0.00896551 0.0012115 1e-05
0.00908513 0.0012141 1e-05
0.00920475 0.00121675 1e-05
0.00932436 0.00121942 1e-05
0.00944398 0.00122211 1e-05
0.0095636 0.00122482 1e-05
0.00968415 0.00122752 1e-05
0.0098047 0.00123028 1e-05
0.00992524 0.00123306 1e-05
0.0100458 0.00123585 1e-05
0.0101663 0.00123865 1e-05
0.0102878 0.00124145 1e-05
0.0104093 0.00124431 1e-05
0.0105308 0.00124719 1e-05
0.0106523 0.00125008 1e-05
0.0107738 0.00125297 1e-05
0.0108962 0.00125586 1e-05
0.0110186 0.0012588 1e-05
0.0111411 0.00126177 1e-05
0.0112635 0.00126475 1e-05
0.0113859 0.00126773 1e-05
0.0115093 0.0012707 1e-05
0.0116327 0.00127372 1e-05
0.0117561 0.00127677 1e-05
0.0118794 0.00127984 1e-05
0.0120028 0.00128289 1e-05
0.0121272 0.00128593 1e-05
0.0122515 0.00128902 1e-05
0.0123759 0.00129215 1e-05
0.0125002 0.00129528 1e-05
0.0126245 0.0012984 1e-05
0.0127498 0.0013015 1e-05
0.0128752 0.00130466 1e-05
0.0130005 0.00130785 1e-05
0.0131258 0.00131105 1e-05
0.0132511 0.00131422 1e-05
0.0133774 0.00131738 1e-05
0.0135036 0.00132059 1e-05
0.0136299 0.00132384 1e-05
0.0137562 0.00132709 1e-05
0.0138825 0.00133031 1e-05
0.0140098 0.00133352 1e-05
0.014137 0.00133677 1e-05
0.0142643 0.00134007 1e-05
0.0143915 0.00134336 1e-05
0.0145188 0.00134662 1e-05
0.0146471 0.00134987 1e-05
0.0147753 0.00135315 1e-05
0.0149036 0.00135648 1e-05
0.0150318 0.00135981 1e-05
0.0151601 0.00136309 1e-05
0.0152893 0.00136637 1e-05
0.0154186 0.00136968 1e-05
0.0155478 0.00137303 1e-05
0.0156771 0.00137638 1e-05
0.0158063 0.00137968 1e-05
0.0159366 0.00138298 1e-05
0.0160668 0.00138631 1e-05
0.0161971 0.00138967 1e-05
0.0163273 0.00139302 1e-05
0.0164576 0.00139634 1e-05
0.0165889 0.00139965 1e-05
0.0167201 0.00140299 1e-05
0.0168514 0.00140635 1e-05
0.0169827 0.0014097 1e-05
0.0171139 0.00141303 1e-05
0.0172462 0.00141634 1e-05
0.0173785 0.00141967 1e-05
0.0175108 0.00142302 1e-05
0.0176431 0.00142636 1e-05
0.0177754 0.00142968 1e-05
0.0179087 0.00143298 1e-05
0.018042 0.0014363 1e-05
0.0181753 0.00143963 1e-05
0.0183087 0.00144296 1e-05
0.018442 0.00144625 1e-05
0.0185763 0.00144954 1e-05
0.0187107 0.00145284 1e-05
0.018845 0.00145614 1e-05
0.0189794 0.00145943 1e-05
0.0191137 0.00146269 1e-05
0.0192491 0.00146596 1e-05
0.0193845 0.00146922 1e-05
0.0195199 0.00147248 1e-05
0.0196553 0.00147573 1e-05
0.0197907 0.00147895 1e-05
0.0199272 0.00148218 1e-05
0.0200636 0.00148539 1e-05
0.0202001 0.0014886 1e-05
0.0203365 0.00149179 1e-05
0.020473 0.00149497 1e-05
0.0206105 0.00149814 1e-05
0.020748 0.0015013 1e-05
0.0208855 0.00150445 1e-05
0.021023 0.00150757 1e-05
0.0211606 0.00151068 1e-05
0.0212991 0.00151379 1e-05
0.0214377 0.00151688 1e-05
0.0215763 0.00151995 1e-05
0.0217149 0.001523 1e-05
0.0218535 0.00152603 1e-05
0.0219931 0.00152907 1e-05
0.0221328 0.00153208 1e-05
0.0222724 0.00153506 1e-05
0.0224121 0.00153802 1e-05
0.0225517 0.00154097 1e-05
0.0226925 0.00154391 1e-05
0.0228332 0.00154683 1e-05
0.022974 0.00154971 1e-05
0.0231147 0.00155257 1e-05
0.0232555 0.00155541 1e-05
0.0233973 0.00155825 1e-05
0.0235391 0.00156106 1e-05
0.023681 0.00156383 1e-05
0.0238228 0.00156657 1e-05
0.0239647 0.00156929 1e-05
0.0241076 0.00157202 1e-05
0.0242505 0.0015747 1e-05
0.0243935 0.00157734 1e-05
0.0245364 0.00157995 1e-05
0.0246794 0.00158254 1e-05
0.0248234 0.00158513 1e-05
0.0249675 0.00158767 1e-05
0.0251115 0.00159017 1e-05
0.0252556 0.00159264 1e-05
0.0253996 0.00159507 1e-05
0.0255448 0.00159751 1e-05
0.02569 0.0015999 1e-05
0.0258351 0.00160224 1e-05
0.0259803 0.00160454 1e-05
0.0261255 0.0016068 1e-05
0.0262718 0.00160907 1e-05
0.0264181 0.00161128 1e-05
0.0265644 0.00161344 1e-05
0.0267107 0.00161556 1e-05
0.026857 0.00161764 1e-05
0.0270044 0.00161972 1e-05
0.0271519 0.00162174 1e-05
0.0272993 0.0016237 1e-05
0.0274468 0.00162562 1e-05
0.0275942 0.00162749 1e-05
0.0277428 0.00162936 1e-05
0.0278914 0.00163115 1e-05
0.0280399 0.0016329 1e-05
0.0281885 0.00163458 1e-05
0.0283371 0.00163622 1e-05
0.0284869 0.00163785 1e-05
0.0286366 0.0016394 1e-05
0.0287863 0.00164089 1e-05
0.0289361 0.00164233 1e-05
0.0290858 0.00164371 1e-05
0.0292367 0.00164506 1e-05
0.0293876 0.00164634 1e-05
0.0295385 0.00164755 1e-05
0.0296894 0.00164869 1e-05
0.0298403 0.00164978 1e-05
0.0299924 0.00165084 1e-05
0.0301445 0.00165181 1e-05
0.0302966 0.0016527 1e-05
0.0304487 0.00165353 1e-05
0.0306007 0.00165429 1e-05
0.030754 0.00165502 1e-05
0.0309072 0.00165566 1e-05
0.0310605 0.00165621 1e-05
0.0312138 0.00165669 1e-05
0.031367 0.00165711 1e-05
0.0315215 0.00165748 1e-05
0.0316759 0.00165775 1e-05
0.0318304 0.00165793 1e-05
0.0319848 0.00165804 1e-05
0.0321393 0.00165807 1e-05
0.0322949 0.00165805 1e-05
0.0324506 0.00165792 1e-05
0.0326062 0.0016577 1e-05
0.0327619 0.0016574 1e-05
0.0329175 0.00165701 1e-05
0.0330744 0.00165657 1e-05
0.0332313 0.00165601 1e-05
0.0333881 0.00165535 1e-05
0.033545 0.0016546 1e-05
0.0337019 0.00165376 1e-05
0.0338599 0.00165285 1e-05
0.034018 0.00165183 1e-05
0.0341761 0.00165069 1e-05
0.0343342 0.00164945 1e-05
0.0344923 0.00164813 1e-05
[...]
POINT_DATA 11935
 FIELD attributes 1
U 3 11935 float
9.99909 	0.00340248 	0 9.99872 	0.00864692 	0 9.99904 	0.0124623 	0 9.99936 	0.0162678 	0 9.99969 	0.0200634 	0 10.0027 	0.0409557 	0 10.003 	0.0143883 	0 10.0057 	0.0135699 	0 10.0084 	0.012748 	0 10.0111 	0.0119226 	0 10.0143 	0.0316811 	0 10.0167 	0.0084929 	0 10.019 	0.00902126 	0 10.0214 	0.00955318 	0 10.0238 	0.0100887 	0 10.0239 	0.0292339 	0 10.0269 	0.0124655 	0 10.028 	0.0141761 	0 10.0292 	0.0158978 	0 10.0303 	0.0176306 	0 10.0276 	0.0337714 	0 10.0317 	0.0217173 	0 10.0323 	0.0233934 	0 10.0328 	0.0250791 	0 10.0334 	0.0267744 	0 10.0289 	0.0388894 	0 10.0337 	0.030566 	0 10.0338 	0.0319345 	0 10.034 	0.0333096 	0 10.0341 	0.0346914 	0 10.0286 	0.0431589 	0 10.0334 	0.0378134 	0 10.0331 	0.0389165 	0 10.0328 	0.040024 	0 10.0325 	0.0411359 	0 10.0268 	0.0467057 	0 10.0311 	0.0436003 	0 10.0304 	0.0444874 	0 10.0298 	0.0453775 	0 10.0291 	0.0462704 	0 10.024 	0.049666 	0 10.0272 	0.0481616 	0 10.0263 	0.0488742 	0 10.0254 	0.0495886 	0 10.0244 	0.0503049 	0 10.0206 	0.0521406 	0 10.0221 	0.0517365 	0 10.021 	0.0523162 	0 10.0198 	0.0528972 	0 10.0187 	0.0534794 	0 10.0169 	0.0542486 	0 10.0171 	0.0542167 	0 10.0167 	0.0543475 	0 10.0164 	0.0544784 	0 10.016 	0.0546093 	0 10.0156 	0.0547387 	0 10.0146 	0.0550899 	0 10.0136 	0.0554416 	0 10.0126 	0.0557937 	0 10.0116 	0.0561463 	0 10.0103 	0.0562652 	0 10.0091 	0.0568758 	0 10.0076 	0.0573022 	0 10.006 	0.0577291 	0 10.0044 	0.0581567 	0 10.0021 	0.0581207 	0 10.0013 	0.058904 	0 9.99957 	0.0593168 	0 9.9978 	0.05973 	0 9.99602 	0.0601437 	0 9.99291 	0.0599444 	0 9.99276 	0.060889 	0 9.99078 	0.0613371 	0 9.98881 	0.0617856 	0 9.98684 	0.0622345 	0 9.98282 	0.0619818 	0 9.98338 	0.0631104 	0 9.98121 	0.0636653 	0 9.97905 	0.0642206 	0 9.97689 	0.0647763 	0 9.97185 	0.0645852 	0 9.97332 	0.0659474 	0 9.97106 	0.0666985 	0 9.96879 	0.0674501 	0 9.96654 	0.0682023 	0 9.96044 	0.0681829 	0 9.96304 	0.0697032 	0 9.96071 	0.0705428 	0 9.95837 	0.071383 	0 9.95605 	0.0722236 	0 9.94874 	0.0722371 	0 9.95294 	0.0735547 	0 9.95111 	0.0739687 	0 9.94928 	0.074383 	0 9.94745 	0.0747975 	0 9.93945 	0.0743571 	0 9.94512 	0.0757959 	-2.06519e-21 9.94336 	0.0760747 	-6.45747e-21 9.94161 	0.0763537 	-1.08496e-20 9.93986 	0.0766328 	-1.52415e-20 9.93126 	0.0760285 	-2.0053e-20 9.93706 	0.0782486 	-3.59459e-20 9.93512 	0.0789502 	-3.59613e-20 9.93319 	0.0796522 	-3.59791e-20 9.93126 	0.0803547 	-3.59993e-20 9.92219 	0.0797529 	-1.82062e-20 9.92836 	0.0826667 	-1.86291e-20 9.92639 	0.0836466 	-2.11413e-20 9.92443 	0.0846273 	-2.36521e-20 9.92247 	0.0856088 	-2.61615e-20 9.91295 	0.0848272 	-2.94561e-20 9.91949 	0.0884308 	-4.58242e-20 9.9174 	0.0897972 	-4.58683e-20 9.91531 	0.0911648 	-4.59163e-20 9.91323 	0.0925337 	-4.5968e-20 9.90312 	0.0917106 	-3.14475e-20 9.91009 	0.0959492 	-2.29219e-20 9.90784 	0.0977527 	-1.34488e-20 9.90559 	0.0995579 	-3.97469e-21 9.90335 	0.101365 	5.50043e-21 9.89254 	0.100627 	1.51943e-20 9.90016 	0.1053 	8.34345e-21 9.89778 	0.107429 	5.03117e-21 9.89541 	0.109559 	1.71841e-21 9.89306 	0.111692 	-1.59482e-21 9.88139 	0.111053 	3.0033e-21 9.88995 	0.115945 	1.6584e-20 9.88743 	0.11826 	1.77785e-20 9.88492 	0.120576 	1.89836e-20 9.88243 	0.122895 	2.01995e-20 9.86961 	0.122336 	2.21343e-21 9.87946 	0.127293 	4.26924e-20 9.87673 	0.129684 	4.64307e-20 9.87402 	0.132078 	5.01898e-20 9.87132 	0.134473 	5.39697e-20 9.85693 	0.133974 	9.67602e-21 9.86851 	0.138901 	1.20654e-20 9.86549 	0.141289 	8.47197e-21 9.8625 	0.14368 	4.87744e-21 9.85952 	0.146072 	1.28177e-21 9.84303 	0.145598 	-4.83282e-21 9.85688 	0.150454 	1.77368e-21 9.85351 	0.152776 	6.89304e-21 9.85016 	0.1551 	1.20108e-20 9.84683 	0.157426 	1.71268e-20 9.82759 	0.156925 	1.97168e-20 9.84441 	0.16171 	1.73653e-20 9.84062 	0.163917 	1.21082e-20 9.83685 	0.166126 	6.84973e-21 9.8331 	0.168337 	1.58985e-21 9.81034 	0.167732 	-1.47848e-22 9.83096 	0.172489 	-1.72751e-21 9.82669 	0.174549 	-6.83549e-21 9.82244 	0.176611 	-1.19421e-20 9.81821 	0.178675 	-1.70473e-20 9.79106 	0.177874 	-1.88073e-20 9.81645 	0.18268 	-1.56219e-20 9.81166 	0.184576 	-5.21344e-21 9.80689 	0.186473 	5.19497e-21 9.80214 	0.188371 	1.56033e-20 9.76963 	0.18727 	1.46137e-20 9.80085 	0.192223 	1.72131e-20 9.79552 	0.193943 	2.147e-20 9.79022 	0.195665 	2.57232e-20 9.78494 	0.197388 	2.99727e-20 9.746 	0.195868 	3.6136e-20 9.78422 	0.201079 	6.49063e-20 9.77837 	0.202619 	6.01009e-20 9.77253 	0.20416 	5.53006e-20 9.766 	0.205638 	5.00928e-20 9.72028 	0.203641 	2.26372e-20 9.76406 	0.209015 	1.35394e-20 9.76031 	0.210581 	6.59333e-22 9.75399 	0.211941 	-1.24271e-20 9.74315 	0.212922 	-2.56975e-20 9.69263 	0.210577 	-4.0589e-20 9.74057 	0.216031 	-1.39525e-19 9.74152 	0.217815 	-1.55176e-19 9.73475 	0.218994 	-1.57115e-19 9.71868 	0.219423 	-1.39697e-19 9.66332 	0.216679 	-4.05696e-20 9.71532 	0.222229 	-2.56026e-20 9.72215 	0.224307 	-1.52659e-20 9.715 	0.225311 	-6.36232e-21 9.69276 	0.225126 	0 9.63268 	0.221961 	0 9.68848 	0.227597 	0 9.70232 	0.230047 	-3.20075e-21 9.69488 	0.230882 	-8.02374e-21 9.66558 	0.230024 	-1.14364e-20 9.60107 	0.226442 	-1.25831e-20 9.66028 	0.232136 	-5.08979e-20 9.68211 	0.235023 	-6.81689e-20 9.67448 	0.235696 	-6.88592e-20 9.63735 	0.234119 	-5.47835e-20 9.56888 	0.23015 	-2.50283e-20 9.63095 	0.235854 	-1.49599e-20 9.66155 	0.239221 	-7.14704e-21 9.6538 	0.239742 	-2.07888e-21 9.60828 	0.237418 	-5.33678e-21 9.53645 	0.233115 	-1.43835e-20 9.60072 	0.238766 	-5.7198e-21 9.64057 	0.242627 	-3.19721e-21 9.63281 	0.243004 	-1.26136e-20 9.57858 	0.239933 	-3.34404e-20 9.50413 	0.235364 	-5.92211e-20 9.56985 	0.24089 	-1.60346e-19 9.61907 	0.245228 	-2.39297e-19 9.61137 	0.24547 	-2.41975e-19 9.54842 	0.241681 	-1.61078e-19 9.4722 	0.236925 	-6.01772e-20 9.53853 	0.242249 	-3.46323e-20 9.59688 	0.247009 	-1.07843e-20 9.58932 	0.247124 	-8.14608e-22 9.51797 	0.242678 	8.95942e-21 9.44089 	0.237823 	1.8713e-20 9.50699 	0.242867 	9.39738e-21 9.57316 	0.247914 	8.6579e-23 9.56433 	0.247806 	-3.99582e-24 9.48738 	0.242944 	-1.33446e-22 9.41037 	0.238078 	-2.62851e-22 9.4754 	0.242765 	-1.39318e-22 9.5405 	0.247456 	-1.58427e-23 9.53272 	0.247283 	8.34968e-21 9.45677 	0.242494 	1.08879e-20 9.38074 	0.237701 	1.34345e-20 9.44391 	0.241965 	1.00723e-19 9.50714 	0.246232 	1.88003e-19 9.50034 	0.245983 	1.96486e-19 9.42624 	0.241344 	1.20611e-19 9.35207 	0.236702 	4.47453e-20 9.41266 	0.240483 	1.20748e-19 9.47331 	0.244267 	1.9674e-19 9.46737 	0.24393 	1.88646e-19 9.39592 	0.239508 	9.85488e-20 9.32439 	0.235083 	8.456e-21 9.38178 	0.238333 	5.20973e-21 9.43922 	0.241586 	1.95793e-21 9.43402 	0.241146 	-3.28499e-21 9.3659 	0.236995 	-9.76249e-21 9.29771 	0.232841 	-1.62415e-20 9.3514 	0.235525 	-1.05117e-19 9.40513 	0.238211 	-1.93991e-19 9.40051 	0.237653 	-1.87607e-19 9.33629 	0.233812 	-8.7524e-20 9.27201 	0.229968 	1.25563e-20 9.32161 	0.232064 	8.73843e-21 9.37124 	0.234161 	4.9225e-21 9.36707 	0.233466 	-8.23064e-23 9.30719 	0.229962 	-1.99343e-22 9.24724 	0.226455 	-3.16346e-22 9.29251 	0.227952 	-2.04502e-22 9.3378 	0.229449 	-9.26662e-23 9.33393 	0.228603 	-9.06372e-21 9.27868 	0.225446 	-2.02501e-20 9.22337 	0.222286 	-3.14334e-20 9.26418 	0.223185 	-2.07328e-20 9.30498 	0.224085 	-1.0032e-20 9.3013 	0.223072 	-1.05017e-20 9.25085 	0.22026 	-2.19857e-20 9.20034 	0.217446 	-3.34668e-20 9.23667 	0.21776 	-2.24679e-20 9.27226 	0.218046 	-1.17002e-20 9.26773 	0.216831 	-1.38867e-20 9.22376 	0.214399 	-1.82355e-20 9.17812 	0.211915 	-2.26692e-20 9.21005 	0.211665 	-1.23005e-19 9.23776 	0.211284 	-2.10294e-19 9.23323 	0.209917 	-1.97272e-19 9.19749 	0.207853 	-1.06084e-19 9.15664 	0.205675 	-2.19213e-21 9.18434 	0.204887 	-2.19899e-21 9.20532 	0.203946 	-1.88612e-21 9.20082 	0.202426 	-3.58543e-22 9.17208 	0.20061 	-5.56571e-21 9.13588 	0.198702 	-1.28391e-20 9.15959 	0.19741 	-5.30336e-21 9.17494 	0.196003 	4.61616e-22 9.17049 	0.194328 	2.02051e-21 9.14758 	0.192652 	1.24795e-20 9.11581 	0.190974 	2.72018e-20 9.1358 	0.189212 	1.1995e-19 9.14655 	0.187423 	1.72241e-19 9.14218 	0.185591 	1.58104e-19 9.12402 	0.183958 	9.84258e-20 9.0964 	0.182464 	7.54625e-21 9.11298 	0.180271 	-1.14951e-20 9.12007 	0.178168 	-2.34062e-20 9.11579 	0.176172 	-2.67705e-20 9.1014 	0.174505 	-3.46324e-20 9.07762 	0.173144 	-4.66839e-20 9.09114 	0.170557 	-1.4511e-19 9.09538 	0.168192 	-1.84825e-19 9.0912 	0.166028 	-1.71187e-19 9.07976 	0.164261 	-1.20601e-19 9.05949 	0.162981 	-2.48424e-20 9.07026 	0.160036 	-9.45262e-21 9.07235 	0.157445 	-1.36492e-21 9.06828 	0.155105 	1.55214e-21 9.05909 	0.153189 	9.36366e-21 9.04198 	0.151939 	2.48071e-20 9.05034 	0.148667 	1.22533e-19 9.05085 	0.145872 	1.55128e-19 9.04689 	0.143346 	1.50876e-19 9.03939 	0.141246 	1.0655e-19 9.0251 	0.139975 	-1.53436e-20 9.03136 	0.136404 	-2.37279e-19 9.03076 	0.133411 	-3.07541e-19 9.02693 	0.130686 	-3.07278e-19 9.02067 	0.128374 	-2.44876e-19 9.00889 	0.127028 	-3.8019e-20 9.01336 	0.123182 	-1.40285e-20 9.01201 	0.119973 	5.59443e-21 9.00831 	0.117015 	2.34836e-20 9.00296 	0.114457 	3.80099e-20 8.99336 	0.112969 	4.35546e-20 8.99631 	0.108846 	1.56454e-19 8.99453 	0.105378 	1.85794e-19 8.99102 	0.102138 	1.85627e-19 8.98641 	0.0992877 	1.56721e-19 8.97881 	0.0975769 	4.394e-20 8.98067 	0.0931168 	3.85049e-20 8.97872 	0.0893399 	1.70671e-20 8.97542 	0.0857899 	-9.73099e-21 8.9714 	0.08264 	-2.70053e-20 8.96547 	0.0806859 	-1.59795e-20 8.96668 	0.075847 	9.20873e-20 8.96468 	0.0717484 	1.3107e-19 8.9615 	0.0679005 	1.46539e-19 8.95785 	0.0644917 	1.33195e-19 8.95314 	0.0623211 	3.88247e-20 8.95373 	0.0571537 	1.3486e-19 8.9517 	0.0527427 	1.50886e-19 8.94859 	0.0486144 	1.36893e-19 8.94526 	0.0449793 	8.82513e-20 8.94156 	0.0425605 	-4.5669e-20 8.94166 	0.0371238 	-3.24676e-20 8.93966 	0.0323945 	-9.67709e-21 8.93663 	0.02798 	1.73966e-20 8.93357 	0.0241264 	4.00609e-20 8.93064 	0.0214012 	5.38792e-20 8.93044 	0.0157128 	1.61239e-19 8.92852 	0.0106434 	2.18289e-19 8.92555 	0.00592556 	2.46717e-19 8.92277 	0.00185598 	2.32195e-19 8.92038 	-0.0012141 	1.51515e-19 8.92002 	-0.00716183 	1.09314e-19 8.91823 	-0.0125985 	8.22406e-20 8.91532 	-0.0176393 	6.68826e-20 8.9128 	-0.0219252 	7.93691e-20 8.91078 	-0.0253726 	1.22782e-19 8.91036 	-0.031601 	1.99482e-19 8.90876 	-0.0374351 	2.41607e-19 8.90587 	-0.0428202 	2.44368e-19 8.90361 	-0.0473241 	2.15514e-19 8.9018 	-0.0511745 	1.63215e-19 8.9014 	-0.0577075 	2.15831e-19 8.90008 	-0.0639687 	2.26455e-19 8.89719 	-0.0697208 	1.58407e-19 8.89514 	-0.0744474 	3.69381e-20 8.89339 	-0.0787256 	-1.07856e-19 8.8931 	-0.0855934 	-2.02498e-19 8.89214 	-0.0923141 	-2.84061e-19 8.88923 	-0.0984587 	-3.14323e-19 8.88734 	-0.103416 	-2.94164e-19 8.88552 	-0.108146 	-2.6438e-19 8.88538 	-0.115383 	-2.89112e-19 8.88493 	-0.122599 	-3.11872e-19 8.88198 	-0.129153 	-2.69394e-19 8.88013 	-0.134359 	-1.92284e-19 8.87812 	-0.139563 	-1.15155e-19 8.87817 	-0.147208 	-7.08459e-20 8.87797 	-0.15485 	-2.65187e-20 8.87561 	-0.161711 	-2.16214e-20 8.87346 	-0.167416 	-4.78978e-20 8.87114 	-0.173118 	-7.41494e-20 8.87141 	-0.181214 	-4.54398e-20 8.87143 	-0.189306 	-1.66907e-20 8.86983 	-0.196515 	-2.24693e-20 8.86726 	-0.20274 	-6.52566e-20 8.8645 	-0.208963 	-1.08035e-19 8.86503 	-0.217556 	-1.82799e-19 8.86528 	-0.226144 	-2.57538e-19 8.86457 	-0.233726 	-2.48923e-19 8.86146 	-0.240496 	-1.46394e-19 8.85813 	-0.247263 	-4.38604e-20 8.85893 	-0.2564 	-2.89667e-20 8.85944 	-0.265531 	-1.40966e-20 8.85975 	-0.273514 	-9.39763e-23 8.85599 	-0.280855 	-2.52377e-20 8.85197 	-0.288189 	-5.06169e-20 8.85303 	-0.297921 	-2.16515e-20 8.8537 	-0.307341 	7.9942e-21 8.85378 	-0.315861 	3.95523e-20 8.85081 	-0.324005 	3.16321e-20 8.84596 	-0.331929 	8.01729e-22 8.84729 	-0.342306 	1.60659e-19 8.84775 	-0.351965 	2.23262e-19 8.84752 	-0.361128 	2.19074e-19 8.8459 	-0.370147 	1.89343e-19 8.84008 	-0.378686 	6.94617e-20 8.84166 	-0.389761 	8.63944e-20 8.84138 	-0.399661 	6.02101e-20 8.84075 	-0.409508 	3.25896e-20 8.83983 	-0.419343 	5.02329e-21 8.8343 	-0.428681 	7.80162e-21 8.83525 	-0.440048 	5.53696e-20 8.83443 	-0.450635 	1.37088e-20 8.8333 	-0.461208 	-2.82345e-20 8.83187 	-0.471767 	-7.04603e-20 8.82869 	-0.48216 	-1.33841e-19 8.82882 	-0.486807 	-1.69098e-19 8.82835 	-0.491224 	-1.62208e-19 8.82783 	-0.495638 	-1.55264e-19 8.82726 	-0.50005 	-1.48266e-19 8.82669 	-0.504113 	-1.4177e-19 8.825 	-0.511028 	-1.37657e-19 8.82318 	-0.517936 	-1.33496e-19 8.82123 	-0.524837 	-1.29287e-19 8.81915 	-0.531731 	-1.25029e-19 8.81883 	-0.538416 	-1.28309e-19 8.81587 	-0.550537 	-8.52426e-20 8.81268 	-0.56254 	-2.96732e-20 8.80914 	-0.574521 	2.58936e-20 8.80524 	-0.586481 	8.14579e-20 8.80539 	-0.597876 	1.16618e-19 8.80232 	-0.611042 	7.93315e-20 8.79833 	-0.623914 	7.82867e-20 8.79386 	-0.636719 	8.29313e-20 8.79097 	-0.649198 	9.06688e-20 8.78991 	-0.661323 	1.01972e-19 8.78685 	-0.675457 	7.4935e-20 8.78333 	-0.689548 	4.74512e-20 8.77812 	-0.703139 	1.41655e-20 8.77536 	-0.716104 	-6.62602e-22 8.77223 	-0.729058 	-1.5601e-20 8.76905 	-0.744216 	-1.40433e-20 8.76544 	-0.759343 	-1.25962e-20 8.7628 	-0.773827 	-6.40639e-21 8.75772 	-0.787628 	-1.45805e-20 8.75226 	-0.801421 	-2.27856e-20 8.7488 	-0.817653 	-1.70195e-20 8.74539 	-0.833451 	-1.55236e-20 8.74202 	-0.848841 	-1.80441e-20 8.73809 	-0.864172 	-2.08075e-20 8.73002 	-0.878799 	-2.91449e-20 8.72647 	-0.894057 	-2.41091e-20 8.72239 	-0.908677 	-1.90756e-20 8.71795 	-0.923267 	-1.40622e-20 8.71318 	-0.937828 	-9.06878e-21 8.70883 	-0.950136 	-4.85626e-21 8.70781 	-0.95235 	-3.67457e-21 8.70677 	-0.954564 	-2.49242e-21 8.70572 	-0.956776 	-1.30981e-21 8.70467 	-0.958988 	-1.26755e-22 8.70417 	-0.9612 	0 8.69705 	-0.978416 	-4.10829e-21 8.68921 	-0.995522 	-9.17033e-21 8.68089 	-1.01258 	-1.42056e-20 8.67224 	-1.0296 	-1.92146e-20 8.66635 	-1.04654 	-2.42235e-20 8.65925 	-1.06524 	-6.81833e-20 8.65089 	-1.08371 	-1.00108e-19 8.64034 	-1.10174 	-1.04479e-19 8.63138 	-1.11955 	-5.25863e-20 8.62192 	-1.13737 	-5.64958e-22 8.61346 	-1.15726 	5.01931e-20 8.60449 	-1.17709 	9.88241e-20 8.59571 	-1.19657 	8.54045e-20 8.58435 	-1.21552 	4.85574e-20 8.57092 	-1.23412 	-5.78713e-21 8.56261 	-1.25119 	-5.08423e-22 8.55345 	-1.26786 	-2.04786e-24 8.54387 	-1.28446 	-1.60947e-24 8.53394 	-1.30102 	-1.17369e-24 8.52503 	-1.31534 	-7.98369e-25 8.52205 	-1.31953 	-5.8807e-25 8.51905 	-1.32372 	-3.77612e-25 8.51603 	-1.32791 	-1.66997e-25 8.51282 	-1.33208 	3.34361e-22 8.50895 	-1.33615 	1.94673e-21 8.49645 	-1.35778 	0 8.48051 	-1.37875 	0 8.464 	-1.39965 	0 8.4444 	-1.42016 	0 8.42149 	-1.44033 	0 8.4089 	-1.46359 	0 8.39567 	-1.48678 	0 8.37666 	-1.50917 	0 8.34976 	-1.52997 	-5.64081e-21 8.32136 	-1.55065 	-1.19732e-20 8.31116 	-1.56575 	-3.25695e-21 8.29754 	-1.58036 	-2.67511e-21 8.28178 	-1.59465 	-6.95078e-21 8.26573 	-1.60891 	-1.12379e-20 8.25109 	-1.62169 	-1.50954e-20 8.24295 	-1.63058 	-1.63164e-20 8.23473 	-1.63946 	-1.75327e-20 8.22641 	-1.64833 	-1.87443e-20 8.21747 	-1.65711 	-1.99538e-20 8.20729 	-1.66573 	-2.11671e-20 8.18882 	-1.69124 	-1.44471e-20 8.16442 	-1.71498 	-7.9674e-21 8.1388 	-1.73846 	-1.48781e-21 8.10768 	-1.76108 	-6.26003e-22 8.07493 	-1.78367 	-6.27457e-22 8.05131 	-1.80964 	3.57934e-20 8.02497 	-1.83518 	5.7677e-20 7.9929 	-1.85974 	4.33369e-20 7.96006 	-1.88422 	2.87532e-20 7.92249 	-1.90756 	4.68373e-21 7.91794 	-1.91154 	7.76299e-21 7.91276 	-1.9154 	7.5404e-21 7.90689 	-1.91914 	3.77059e-21 7.901 	-1.92286 	-5.81153e-24 7.89524 	-1.9265 	-3.6928e-21 7.86622 	-1.94784 	-1.87833e-20 7.83669 	-1.96913 	-3.39926e-20 7.80666 	-1.99039 	-4.93215e-20 7.77378 	-2.01118 	-4.82385e-20 7.73768 	-2.03164 	-3.01779e-20 7.70242 	-2.05921 	-7.56834e-20 7.66634 	-2.08672 	-1.21112e-19 7.62386 	-2.11283 	-1.09614e-19 7.57603 	-2.13705 	-7.33698e-20 7.52445 	-2.16041 	-2.77825e-20 7.51013 	-2.1694 	-2.90997e-20 7.49487 	-2.17807 	-2.80234e-20 7.47791 	-2.18615 	-2.2413e-20 7.46085 	-2.19422 	-1.67814e-20 7.44465 	-2.20183 	-1.14441e-20 7.41335 	-2.2195 	-7.98866e-21 7.3817 	-2.23715 	-4.53646e-21 7.34967 	-2.25479 	-1.08762e-21 7.31519 	-2.27124 	3.26792e-22 7.27881 	-2.28719 	6.13884e-22 7.23091 	-2.31502 	7.8632e-20 7.1821 	-2.3428 	1.56486e-19 7.12828 	-2.36556 	1.39781e-19 7.07043 	-2.38541 	8.58742e-20 7.00812 	-2.40357 	1.36024e-20 6.99527 	-2.40889 	2.89367e-20 6.98214 	-2.41372 	3.90624e-20 6.96803 	-2.41656 	2.78752e-20 6.95389 	-2.41939 	1.66558e-20 6.94019 	-2.42212 	5.78666e-21 6.89751 	-2.43679 	-4.45253e-20 6.85442 	-2.45149 	-9.53934e-20 6.8109 	-2.46623 	-1.46826e-19 6.76566 	-2.47401 	-9.63751e-20 6.71907 	-2.47988 	-1.55888e-20 6.66437 	-2.4929 	5.70671e-20 6.60879 	-2.5039 	1.11218e-19 6.55137 	-2.50514 	7.66162e-20 6.49351 	-2.50635 	4.16284e-20 6.44134 	-2.50741 	9.97891e-21 6.43924 	-2.50773 	8.80468e-21 6.43715 	-2.50805 	7.62979e-21 6.43505 	-2.50837 	6.45423e-21 6.43295 	-2.50832 	8.40217e-21 6.43085 	-2.5082 	1.09759e-20 6.37715 	-2.50816 	2.54502e-20 6.32213 	-2.50731 	3.68014e-20 6.26676 	-2.50649 	4.82402e-20 6.21023 	-2.49883 	3.47732e-20 6.15275 	-2.49047 	1.89078e-20 6.1194 	-2.48839 	2.23876e-20 6.08583 	-2.486 	2.51513e-20 6.05142 	-2.48116 	2.23638e-20 6.01691 	-2.47632 	1.9573e-20 5.98361 	-2.47166 	1.68849e-20 5.96503 	-2.46962 	1.4409e-20 5.94641 	-2.46758 	1.19302e-20 5.92775 	-2.46554 	9.44848e-21 5.90847 	-2.46211 	7.08384e-21 5.88899 	-2.45842 	4.73032e-21 5.84125 	-2.45277 	1.20028e-20 5.79326 	-2.44712 	1.92432e-20 5.74308 	-2.4391 	1.99573e-20 5.68971 	-2.42835 	1.29171e-20 5.63569 	-2.41752 	5.82168e-21 5.62143 	-2.41545 	4.36605e-21 5.60709 	-2.41329 	3.16632e-21 5.5922 	-2.41032 	4.30618e-21 5.57729 	-2.40734 	5.44723e-21 5.56258 	-2.40441 	6.57355e-21 5.52895 	-2.39809 	1.07041e-20 5.49522 	-2.39178 	1.48458e-20 5.4614 	-2.38548 	1.89988e-20 5.42598 	-2.37718 	1.28488e-20 5.39002 	-2.36847 	4.83955e-21 5.34586 	-2.35981 	5.02722e-21 5.30122 	-2.35076 	5.0548e-21 5.25433 	-2.33912 	4.03968e-21 5.20729 	-2.32747 	3.0193e-21 5.16187 	-2.31628 	2.03224e-21 5.16033 	-2.31592 	1.97694e-21 5.15879 	-2.31555 	1.92163e-21 5.15726 	-2.31519 	1.86632e-21 5.15564 	-2.31474 	1.96246e-21 5.15401 	-2.31427 	2.08931e-21 5.10933 	-2.30248 	2.79557e-21 5.06396 	-2.29042 	3.39247e-21 5.01846 	-2.27837 	3.99109e-21 4.97042 	-2.26362 	3.47499e-21 4.92171 	-2.2485 	2.83595e-21 4.8932 	-2.24042 	2.17068e-21 4.8644 	-2.23211 	1.54719e-21 4.83408 	-2.22229 	1.18752e-21 4.80372 	-2.21247 	8.28315e-22 4.77385 	-2.20283 	4.76029e-22 4.75908 	-2.19809 	1.13362e-22 4.74429 	-2.19334 	-2.4933e-22 4.72949 	-2.1886 	-6.12048e-22 4.71269 	-2.18301 	3.40116e-22 4.69538 	-2.17721 	1.59883e-21 4.6558 	-2.16332 	3.33444e-20 4.61614 	-2.14943 	6.50816e-20 4.57093 	-2.13366 	6.36557e-20 4.52083 	-2.11613 	2.88893e-20 4.47042 	-2.09854 	-5.99402e-21 4.45492 	-2.09274 	-1.30765e-20 4.43902 	-2.08682 	-1.84688e-20 4.42091 	-2.08015 	-1.46365e-20 4.40279 	-2.07349 	-1.08006e-20 4.38478 	-2.06687 	-6.9864e-21 4.3614 	-2.05694 	-7.23989e-21 4.33801 	-2.04701 	-7.49287e-21 4.31461 	-2.03709 	-7.74531e-21 4.29025 	-2.02608 	-1.01511e-20 4.26517 	-2.01431 	-1.40988e-20 4.23015 	-1.99886 	-3.63571e-20 4.1951 	-1.98341 	-5.86134e-20 4.15757 	-1.96603 	-5.42786e-20 4.117 	-1.94661 	-2.29404e-20 4.07641 	-1.92718 	8.42234e-21 4.05832 	-1.91886 	2.25848e-20 4.03967 	-1.91005 	2.7475e-20 4.02015 	-1.90049 	1.80361e-20 4.00063 	-1.89094 	8.59844e-21 3.98111 	-1.88138 	-8.38287e-22 3.96362 	-1.87281 	-1.64077e-21 3.94614 	-1.86424 	-2.44329e-21 3.92865 	-1.85566 	-3.24584e-21 3.91145 	-1.84655 	-1.73296e-21 3.89444 	-1.8371 	1.27781e-21 3.8595 	-1.81991 	-4.18388e-20 3.82457 	-1.80273 	-8.49595e-20 3.78895 	-1.7842 	-8.66161e-20 3.75372 	-1.76454 	-4.6975e-20 3.71859 	-1.7449 	-7.37223e-21 3.69733 	-1.73423 	-2.53024e-21 3.67626 	-1.72323 	4.32099e-22 3.65549 	-1.71169 	3.27177e-22 3.63474 	-1.70015 	2.22203e-22 3.61389 	-1.68854 	1.16572e-22 3.60151 	-1.68157 	1.72546e-23 3.58913 	-1.6746 	-8.20626e-23 3.57676 	-1.66762 	-1.81379e-22 3.56466 	-1.66035 	-5.07129e-21 3.55273 	-1.65289 	-1.29472e-20 3.52136 	-1.63533 	-6.09171e-20 3.48979 	-1.61758 	-1.02837e-19 3.45784 	-1.59911 	-1.18185e-19 3.42673 	-1.57976 	-9.56805e-20 3.3