/*--------------------------------*- C++ -*----------------------------------*\
| =========                 |                                                 |
| \\      /  F ield         | OpenFOAM: The Open Source CFD Toolbox           |
|  \\    /   O peration     | Version:  2.2.x                                 |
|   \\  /    A nd           | Web:      www.OpenFOAM.org                      |
|    \\/     M anipulation  |                                                 |
\*---------------------------------------------------------------------------*/
FoamFile
{
    version     2.0;
    format      ascii;
    class       volScalarField;
    location    "150";
    object      epsilon;
}
// * * * * * * * * * * * * * * * * * * * * * * * * * * * * * * * * * * * * * //

dimensions      [0 2 -3 0 0 0 0];

internalField   nonuniform List<scalar> 
12225
(
1739.1
3020.39
4029.6
4713.34
5129.61
5353.8
5449.53
5463.44
5427.31
5361.88
5280.33
5190.87
5098.48
5006.07
4915.16
4826.31
4738.25
4655.97
187.475
345.48
472.06
572.9
645.743
694.117
724.225
741.822
751.342
755.944
757.776
758.256
758.308
758.552
759.489
761.886
768.516
782.257
41.8508
72.5434
98.6859
120.884
139.006
153.146
163.804
171.617
177.214
181.157
183.915
185.872
187.332
188.547
189.742
191.181
193.266
196.299
20.3617
27.9944
35.5031
42.3903
48.4766
53.6975
58.0824
61.7091
64.6748
67.081
69.0265
70.603
71.8939
72.9764
73.9251
74.8197
75.7512
76.783
16.057
18.2178
20.6867
23.1743
25.5397
27.7104
29.6583
31.3808
32.8891
34.2011
35.3385
36.3242
37.1816
37.9341
38.6056
39.2212
39.8073
40.3764
15.0134
15.5471
16.3172
17.2055
18.1323
19.0465
19.9181
20.7313
21.4795
22.1615
22.7797
23.3385
23.8438
24.3027
24.7226
25.1121
25.4797
25.8268
14.7585
14.7819
14.9226
15.1528
15.4427
15.7665
16.1047
16.4437
16.7745
17.0917
17.3922
17.6748
17.9396
18.1877
18.4209
18.6416
18.8524
19.0518
14.7065
14.6001
14.5501
14.5535
14.6017
14.684
14.7904
14.9124
15.0433
15.1781
15.3134
15.4468
15.5769
15.7031
15.8254
15.9442
16.0601
16.171
14.6925
14.5449
14.4248
14.3341
14.2718
14.235
14.2196
14.2215
14.2368
14.2622
14.2949
14.3329
14.3746
14.4189
14.465
14.5126
14.5615
14.61
14.6884
14.5276
14.3815
14.2515
14.138
14.0408
13.9588
13.8906
13.8346
13.7892
13.7529
13.7244
13.7024
13.686
13.6746
13.6675
13.6643
13.6638
14.6873
14.5229
14.369
14.2258
14.0933
13.9714
13.8598
13.7582
13.6659
13.5822
13.5066
13.4384
13.3769
13.3216
13.2719
13.2275
13.188
13.1529
14.6869
14.5217
14.3659
14.2191
14.0811
13.9513
13.8295
13.7154
13.6085
13.5087
13.4153
13.3283
13.2471
13.1715
13.1012
13.0358
12.9753
12.9196
14.6868
14.5212
14.365
14.2175
14.0781
13.9464
13.822
13.7043
13.5931
13.488
13.3887
13.2948
13.2063
13.1226
13.0438
12.9695
12.8995
12.8343
14.6866
14.521
14.3647
14.217
14.0773
13.9453
13.8202
13.7018
13.5897
13.4834
13.3826
13.2871
13.1965
13.1106
13.0292
12.9521
12.8791
12.8107
14.6865
14.5208
14.3644
14.2167
14.077
13.9448
13.8197
13.7012
13.5889
13.4825
13.3815
13.2857
13.1948
13.1086
13.0267
12.949
12.8754
12.8062
14.6864
14.5207
14.3642
14.2164
14.0767
13.9446
13.8195
13.701
13.5888
13.4823
13.3814
13.2857
13.1949
13.1086
13.0268
12.9491
12.8754
12.8062
14.6863
14.5206
14.3641
14.2163
14.0766
13.9444
13.8194
13.701
13.5888
13.4824
13.3816
13.286
13.1953
13.1091
13.0274
12.9498
12.8761
12.8069
14.6863
14.5205
14.364
14.2162
14.0765
13.9444
13.8194
13.7011
13.589
13.4827
13.382
13.2865
13.1958
13.1098
13.0281
12.9506
12.877
12.8078
14.6863
14.5205
14.364
14.2163
14.0766
13.9446
13.8196
13.7013
13.5893
13.4832
13.3826
13.2871
13.1966
13.1106
13.0291
12.9516
12.878
12.8089
14.6863
14.5205
14.3641
14.2164
14.0768
13.9448
13.82
13.7018
13.59
13.484
13.3835
13.2882
13.1979
13.1122
13.0308
12.9535
12.8802
12.8112
14.6863
14.5206
14.3643
14.2167
14.0773
13.9455
13.821
13.7033
13.5919
13.4866
13.3869
13.2925
13.2031
13.1184
13.0382
12.9621
12.8901
12.8225
14.6864
14.5209
14.3649
14.2179
14.0795
13.9493
13.8269
13.7118
13.6036
13.502
13.4066
13.317
13.2329
13.1538
13.0794
13.0095
12.9437
12.8825
14.6868
14.5224
14.369
14.2267
14.0953
13.9747
13.8642
13.7635
13.6717
13.5882
13.5122
13.443
13.38
13.3224
13.2697
13.2214
13.1769
13.1365
14.6895
14.5345
14.3996
14.2859
14.1929
14.1192
14.0625
14.0204
13.9905
13.9704
13.9582
13.9521
13.9508
13.9529
13.9575
13.9639
13.9714
13.9798
14.7119
14.6195
14.5877
14.6099
14.676
14.7745
14.8955
15.0306
15.1732
15.3184
15.4625
15.603
15.738
15.8664
15.9874
16.1007
16.2062
16.304
14.8711
15.1212
15.5412
16.0642
16.6405
17.2349
17.8242
18.3939
18.9352
19.4432
19.9155
20.3513
20.7511
21.1161
21.4479
21.7484
22.0197
22.2637
15.8754
17.7032
19.7805
21.8824
23.9165
25.8355
27.617
29.2525
30.7407
32.0848
33.2909
34.367
35.322
36.1657
36.9076
37.557
38.1228
38.6134
22.1654
31.0934
39.2939
46.8472
53.8102
60.1538
65.8668
70.9567
75.4433
79.3573
82.7392
85.6356
88.0959
90.1695
91.9035
93.3399
94.5129
95.4426
68.0103
114.849
154.666
191.584
225.724
256.429
283.397
306.608
326.227
342.545
355.931
366.775
375.462
382.345
387.736
391.893
395
397.059
723.139
1065.46
1375.81
1655.4
1913.49
2143.16
2341.14
2507.09
2642.69
2750.78
2834.76
2898.1
2944.13
2975.88
2996.01
3006.79
3010.18
3007.65
5.32371
9.40424
17.2885
26.2956
36.3214
47.3785
59.2975
71.9976
85.4211
99.5203
114.254
129.586
145.483
161.916
178.861
196.293
214.192
232.539
251.318
270.513
290.111
310.098
330.464
351.196
372.286
393.722
415.496
437.598
460.018
482.747
505.773
529.086
552.675
576.526
600.627
624.961
649.513
674.265
699.196
724.285
749.507
774.836
800.241
825.691
851.15
876.579
901.938
927.183
952.267
977.143
1001.76
1026.07
1050.04
1073.61
1096.78
1119.53
1141.88
1163.89
1184.84
1204.04
1221.21
1236.09
1248.4
1257.86
1264.2
1267.17
1266.56
1262.2
1253.96
1241.79
1225.7
1205.79
1182.25
1155.31
1125.29
1092.57
1057.56
1020.7
982.443
943.237
903.507
863.65
824.029
784.957
746.703
709.488
673.49
638.839
605.629
573.917
543.736
515.086
487.95
462.298
438.082
415.243
393.72
373.452
354.367
336.385
319.454
303.512
288.465
274.28
260.923
248.244
236.325
225.314
215.313
206.62
199.739
193.532
187.751
182.313
177.18
172.32
167.712
163.333
159.163
155.187
151.389
147.755
144.276
140.941
137.741
134.669
131.716
128.876
126.142
123.508
120.969
118.521
116.159
113.879
111.678
109.552
107.498
105.513
103.594
101.738
99.9444
98.2101
96.5332
94.9117
93.3438
91.828
90.3626
88.9461
87.577
86.2543
84.977
83.7439
82.5539
81.4059
80.2988
79.2318
78.2043
77.2156
76.2651
75.3517
74.4746
73.6333
72.8269
72.0542
71.3141
70.606
69.9396
69.3739
68.8819
68.4427
68.0425
67.6705
67.3166
66.9697
66.614
66.2283
65.8131
65.3432
64.7457
63.5631
29.8967
20.386
26.1939
34.3795
43.3188
52.5526
61.8783
71.21
80.5094
89.7573
98.945
108.07
117.135
126.143
135.103
144.022
152.907
161.765
170.604
179.43
188.247
197.06
205.871
214.682
223.495
232.31
241.125
249.938
258.749
267.552
276.345
285.123
293.882
302.617
311.321
319.989
328.615
337.191
345.712
354.17
362.558
370.869
379.096
387.232
395.271
403.206
411.033
418.747
426.343
433.822
441.183
448.429
455.568
462.61
469.574
476.485
483.377
490.3
497.179
503.59
509.426
514.601
519.029
522.618
525.272
526.893
527.388
526.67
524.665
521.313
516.579
510.453
502.952
494.124
484.048
472.826
460.587
447.476
433.65
419.271
404.502
389.499
374.409
359.365
344.484
329.866
315.595
301.737
288.343
275.449
263.081
251.25
239.959
229.206
218.98
209.267
200.045
191.296
182.999
175.125
167.646
160.55
153.801
147.359
141.246
135.361
129.705
124.462
119.62
115.159
111.176
107.487
104.024
100.754
97.6574
94.7181
91.9229
89.2606
86.7213
84.2961
81.9769
79.7566
77.6286
75.5869
73.6263
71.7419
69.9293
68.1847
66.5041
64.8844
63.3224
61.8153
60.3605
58.9555
57.5981
56.2862
55.0179
53.7913
52.6048
51.4568
50.3458
49.2704
48.2294
47.2215
46.2456
45.3006
44.3856
43.4994
42.6413
41.8103
41.0058
40.2269
39.4729
38.7428
38.0363
37.3527
36.6914
36.0519
35.4335
34.8358
34.2583
33.7007
33.1624
32.6433
32.143
31.6614
31.1994
30.7623
30.3513
29.9655
29.6035
29.2641
28.9466
28.6512
28.3792
28.1353
27.9562
27.8978
28.1207
29.3239
54.8271
30.9886
35.2531
42.9884
51.5552
60.3053
68.9912
77.515
85.8458
93.9811
101.931
109.713
117.347
124.853
132.251
139.558
146.791
153.962
161.082
168.159
175.198
182.202
189.175
196.115
203.022
209.895
216.731
223.526
230.278
236.982
243.637
250.237
256.781
263.267
269.691
276.053
282.351
288.587
294.761
300.875
306.931
312.935
318.891
324.805
330.684
336.539
342.377
348.211
354.052
359.913
365.807
371.748
377.75
383.824
389.982
396.232
402.576
409.014
415.424
421.695
427.76
433.549
438.98
443.958
448.379
452.125
455.073
457.099
458.08
457.908
456.489
453.756
449.671
444.23
437.465
429.442
420.256
410.033
398.915
387.058
374.625
361.775
348.664
335.436
322.219
309.126
296.254
283.681
271.47
259.665
248.302
237.403
226.977
217.025
207.545
198.528
189.955
181.804
174.07
166.722
159.712
153.064
146.732
140.612
134.864
129.412
124.235
119.366
114.806
110.542
106.576
102.853
99.3392
96.0111
92.8525
89.8497
86.9911
84.2659
81.6649
79.1794
76.8017
74.5247
72.3419
70.2474
68.236
66.3027
64.4431
62.653
60.9289
59.2671
57.6644
56.118
54.6253
53.1836
51.7908
50.4447
49.1433
47.8846
46.667
45.4887
44.3483
43.2441
42.175
41.1396
40.1368
39.1653
38.2242
37.3123
36.4288
35.5726
34.7429
33.9389
33.1597
32.4047
31.673
30.964
30.2771
29.6117
28.967
28.3427
27.7381
27.1529
26.5865
26.0386
25.5089
24.9973
24.5038
24.0291
23.5736
23.1376
22.721
22.3242
21.9475
21.5924
21.2619
20.9622
20.7152
20.57
20.6305
21.2166
80.9459
40.0059
42.1499
49.2071
57.3054
65.5937
73.7925
81.8013
89.5968
97.1872
104.594
111.843
118.962
125.977
132.91
139.781
146.607
153.399
160.165
166.913
173.643
180.357
187.054
193.73
200.382
207.004
213.591
220.139
226.64
233.092
239.487
245.823
252.095
258.302
264.441
270.512
276.517
282.456
288.335
294.157
299.931
305.665
311.368
317.054
322.737
328.432
334.157
339.932
345.777
351.713
357.762
363.946
370.287
376.803
383.509
390.418
397.533
404.855
412.306
419.831
427.376
434.871
442.228
449.336
456.067
462.271
467.782
472.426
476.024
478.408
479.425
478.949
476.892
473.209
467.901
461.016
452.646
442.92
431.998
420.06
407.298
393.904
380.068
365.969
351.769
337.608
323.611
309.881
296.5
283.527
271.01
258.984
247.467
236.458
225.959
215.976
206.479
197.427
188.851
180.717
172.888
165.521
158.567
151.962
145.728
139.837
134.267
129.011
124.059
119.397
115.007
110.858
106.929
103.199
99.6537
96.2802
93.0662
90.0008
87.0741
84.2768
81.6006
79.0377
76.5809
74.2238
71.9604
69.7853
67.6935
65.6805
63.742
61.8741
60.0734
58.3364
56.6601
55.0417
53.4785
51.9681
50.5082
49.0968
47.7318
46.4113
45.1336
43.8971
42.7001
41.5412
40.4191
39.3323
38.2798
37.2602
36.2725
35.3156
34.3885
33.4902
32.6198
31.7764
30.9592
30.1674
29.4003
28.657
27.937
27.2395
26.564
25.9098
25.2766
24.6638
24.071
23.4979
22.9442
22.4098
21.8948
21.3992
20.9231
20.4669
20.0314
19.6182
19.2305
18.8742
18.564
18.3358
18.2511
18.4541
105.788
47.2666
46.8412
53.002
60.5444
68.3542
76.099
83.6723
91.056
98.2666
105.333
112.287
119.161
125.981
132.773
139.556
146.345
153.151
159.98
166.836
173.719
180.626
187.553
194.494
201.441
208.387
215.323
222.24
229.129
235.983
242.793
249.551
256.252
262.89
269.461
275.962
282.391
288.751
295.041
301.267
307.435
313.554
319.636
325.693
331.742
337.804
343.899
350.054
356.294
362.652
369.157
375.842
382.74
389.884
397.303
405.021
413.057
421.424
430.092
439.035
448.21
457.555
466.98
476.362
485.552
494.364
502.589
509.994
516.335
521.371
524.876
526.654
526.556
524.488
520.414
514.364
506.426
496.74
485.49
472.89
459.171
444.569
429.317
413.641
397.743
381.8
365.966
350.378
335.144
320.338
306.014
292.233
279.027
266.383
254.294
242.817
231.908
221.422
211.553
202.247
193.421
185.095
177.238
169.817
162.811
156.195
149.944
144.04
138.463
133.195
128.214
123.493
119.013
114.754
110.702
106.843
103.164
99.6531
96.2996
93.0936
90.0256
87.0872
84.2703
81.5677
78.9726
76.479
74.0812
71.774
69.5527
67.4127
65.3501
63.3609
61.4417
59.5892
57.8004
56.0726
54.403
52.7893
51.2292
49.7204
48.2611
46.8492
45.483
44.1607
42.8808
41.6418
40.4421
39.2805
38.1556
37.0662
36.0111
34.9892
33.9994
33.0407
32.1122
31.2128
30.3417
29.498
28.681
27.8899
27.124
26.3826
25.665
24.9708
24.2993
23.6501
23.0227
22.4169
21.8324
21.2691
20.7271
20.2067
19.7089
19.2352
18.7887
18.375
18.0052
17.7037
17.508
17.4866
127.67
52.7952
49.5883
54.6713
61.5586
68.8506
76.1387
83.2989
90.312
97.1985
103.992
110.729
117.444
124.167
130.923
137.731
144.608
151.563
158.602
165.727
172.935
180.224
187.586
195.013
202.494
210.018
217.573
225.148
232.728
240.301
247.855
255.378
262.858
270.285
277.651
284.946
292.164
299.301
306.353
313.32
320.204
327.009
333.743
340.417
347.045
353.647
360.246
366.869
373.547
380.319
387.224
394.308
401.618
409.203
417.114
425.397
434.092
443.236
452.855
462.955
473.521
484.509
495.84
507.393
519.003
530.458
541.501
551.838
561.149
569.106
575.39
579.719
581.865
581.666
579.043
573.997
566.606
557.022
545.455
532.159
517.409
501.49
484.683
467.266
449.493
431.577
413.703
396.041
378.745
361.898
345.543
329.784
314.692
300.219
286.284
273.134
260.686
248.865
237.701
227.163
217.211
207.82
198.96
190.597
182.703
175.248
168.204
161.545
155.247
149.288
143.643
138.286
133.196
128.355
123.745
119.351
115.159
111.157
107.333
103.675
100.174
96.82
93.604
90.518
87.5546
84.7068
81.9684
79.3335
76.7966
74.3528
71.9975
69.7263
67.5353
65.4208
63.3794
61.4079
59.5032
57.6626
55.8833
54.1631
52.4996
50.8905
49.3339
47.8278
46.3703
44.9597
43.5944
42.2727
40.9932
39.7545
38.5552
37.3939
36.2696
35.181
34.127
33.1064
32.1183
31.1618
30.2358
29.3395
28.4721
27.6327
26.8207
26.0353
25.276
24.542
23.8329
23.1481
22.4874
21.8505
21.2375
20.6486
20.0848
19.5475
19.0397
18.5663
18.1363
17.766
17.478
17.306
145.725
56.7333
50.7574
54.6526
60.7991
67.5276
74.3413
81.0871
87.7374
94.3119
100.846
107.379
113.947
120.582
127.312
134.157
141.134
148.254
155.522
162.941
170.509
178.22
186.068
194.041
202.128
210.314
218.585
226.925
235.316
243.742
252.185
260.627
269.052
277.441
285.78
294.053
302.246
310.347
318.343
326.227
333.992
341.635
349.155
356.556
363.846
371.039
378.153
385.214
392.255
399.314
406.441
413.689
421.122
428.808
436.823
445.241
454.134
463.571
473.644
484.406
495.89
508.09
520.956
534.387
548.217
562.217
576.089
589.473
601.964
613.131
622.543
629.808
634.595
636.661
635.863
632.165
625.63
616.415
604.76
590.958
575.34
558.238
539.983
520.904
501.323
481.498
461.624
441.898
422.565
403.714
385.3
367.54
350.59
334.405
318.957
304.3
290.416
277.27
264.844
253.108
242.027
231.568
221.695
212.375
203.573
195.257
187.396
179.959
172.919
166.25
159.925
153.919
148.209
142.774
137.596
132.658
127.945
123.443
119.138
115.02
111.076
107.296
103.671
100.191
96.8493
93.6372
90.548
87.5751
84.7126
81.955
79.297
76.734
74.2615
71.8754
69.5717
67.347
65.1978
63.1211
61.1138
59.1732
57.2967
55.4819
53.7264
52.0281
50.3848
48.7947
47.2558
45.7664
44.3247
42.9292
41.5783
40.2707
39.0048
37.7794
36.5933
35.4451
34.3337
33.258
32.2171
31.2098
30.2353
29.2926
28.3808
27.4993
26.6472
25.8238
25.0285
24.2607
23.5199
22.806
22.1189
21.4588
20.8266
20.2236
19.6524
19.1176
18.6261
18.1894
17.8189
17.5325
159.602
59.2849
50.7261
53.3973
58.7425
64.8635
71.176
77.4906
83.7647
90.0126
96.2688
102.573
108.963
115.474
122.135
128.968
135.992
143.22
150.659
158.314
166.182
174.26
182.54
191.012
199.662
208.474
217.433
226.518
235.709
244.985
254.324
263.703
273.099
282.488
291.846
301.15
310.379
319.509
328.52
337.393
346.11
354.658
363.024
371.202
379.187
386.983
394.599
402.053
409.371
416.589
423.757
430.933
438.193
445.622
453.319
461.394
469.956
479.115
489.032
499.834
511.618
524.44
538.308
553.158
568.852
585.155
601.739
618.182
633.984
648.594
661.447
672.014
679.839
684.576
686.006
684.042
678.726
670.22
658.786
644.761
628.539
610.512
591.049
570.503
549.321
527.807
506.134
484.451
463.267
442.647
422.636
403.346
384.863
367.208
350.384
334.397
319.236
304.879
291.296
278.457
266.326
254.868
244.045
233.819
224.156
215.019
206.376
198.193
190.44
183.09
176.113
169.483
163.176
157.171
151.446
145.984
140.768
135.782
131.014
126.449
122.076
117.883
113.861
109.998
106.288
102.72
99.2884
95.9853
92.8043
89.7393
86.7847
83.9352
81.186
78.5325
75.9707
73.4964
71.106
68.796
66.5633
64.4046
62.3173
60.2984
58.3456
56.4563
54.6282
52.8593
51.1474
49.4906
47.8869
46.3347
44.8322
43.3778
41.97
40.6074
39.2884
38.0117
36.7762
35.5805
34.4236
33.3042
32.2214
31.1741
30.1614
29.1824
28.2363
27.3222
26.4395
25.5875
24.7657
23.9737
23.2116
22.4795
21.778
21.1085
20.4733
19.8762
19.3226
18.8208
18.3743
17.9933
169.25
60.6762
49.8417
51.3162
55.8297
61.3082
67.0905
72.949
78.8218
84.7139
90.656
96.6869
102.846
109.168
115.685
122.422
129.401
136.636
144.139
151.914
159.963
168.285
176.871
185.712
194.797
204.108
213.628
223.335
233.209
243.224
253.354
263.572
273.849
284.157
294.464
304.741
314.955
325.077
335.075
344.919
354.58
364.032
373.25
382.212
390.901
399.306
407.42
415.248
422.803
430.111
437.212
444.164
451.042
457.942
464.982
472.3
480.049
488.39
497.547
507.736
519.144
531.917
546.143
561.833
578.896
597.122
616.165
635.548
654.671
672.847
689.349
703.487
714.659
722.397
726.39
726.489
722.712
715.233
704.332
690.367
673.832
655.194
634.852
613.049
590.563
567.703
544.72
521.844
499.357
477.421
456.146
435.622
415.919
397.074
379.102
362.003
345.769
330.377
315.801
302.009
288.964
276.629
264.967
253.939
243.507
233.635
224.287
215.429
207.03
199.06
191.489
184.289
177.437
170.908
164.681
158.737
153.057
147.627
142.43
137.452
132.682
128.106
123.714
119.496
115.442
111.543
107.791
104.18
100.7
97.3474
94.1145
90.996
87.9868
85.0818
82.2767
79.567
76.9489
74.4185
71.9724
69.6072
67.3198
65.1073
62.9668
60.8957
58.8916
56.9521
55.075
53.258
51.4991
49.7966
48.1484
46.5529
45.0083
43.5132
42.0659
40.665
39.3092
37.997
36.7273
35.4989
34.3106
33.1612
32.0499
30.9756
29.9373
28.9343
27.9658
27.031
26.1295
25.2608
24.4248
23.6217
22.8521
22.1169
21.4184
20.7594
20.1441
19.5782
19.0613
18.5988
174.779
61.1267
48.4039
48.7591
52.441
57.256
62.4835
67.8604
73.3033
78.8052
84.3905
90.0954
95.9582
102.016
108.301
114.842
121.662
128.78
136.209
143.957
152.03
160.427
169.143
178.172
187.502
197.118
207.002
217.134
227.489
238.043
248.768
259.632
270.604
281.65
292.735
303.822
314.873
325.85
336.712
347.421
357.936
368.219
378.233
387.94
397.31
406.313
414.927
423.138
430.941
438.343
445.369
452.063
458.489
464.743
470.946
477.256
483.864
490.981
498.884
507.891
518.297
530.359
544.278
560.167
578.021
597.681
618.808
640.876
663.188
684.906
705.107
722.918
737.576
748.483
755.227
757.575
755.533
749.308
739.202
725.498
708.921
690.003
669.226
647.029
623.936
600.345
576.579
552.908
529.571
506.752
484.586
463.171
442.577
422.849
404.008
386.059
368.992
352.79
337.427
322.871
309.086
296.037
283.684
271.99
260.915
250.423
240.479
231.046
222.094
213.59
205.505
197.812
190.484
183.498
176.831
170.463
164.376
158.552
152.976
147.633
142.51
137.594
132.874
128.338
123.978
119.783
115.745
111.857
108.11
104.498
101.015
97.6545
94.411
91.2792
88.2544
85.332
82.5078
79.7777
77.1381
74.5853
72.116
69.7271
67.4156
65.1786
63.0135
60.9177
58.889
56.9249
55.0233
53.1821
51.3994
49.6734
48.0021
46.384
44.8174
43.3007
41.8325
40.4114
39.0361
37.7052
36.4176
35.1721
33.9676
32.803
31.6775
30.59
29.5399
28.5263
27.5486
26.6066
25.6999
24.8287
23.9935
23.1951
22.4352
21.7163
21.0413
20.4138
19.8319
19.2972
176.37
60.8432
46.6668
46.0148
48.8908
53.0374
57.6942
62.5688
67.5565
72.6363
77.8246
83.1528
88.6575
94.3753
100.34
106.582
113.126
119.995
127.204
134.765
142.686
150.97
159.617
168.621
177.973
187.66
197.665
207.971
218.552
229.385
240.44
251.687
263.09
274.615
286.223
297.873
309.524
321.13
332.646
344.025
355.22
366.181
376.86
387.21
397.184
406.737
415.831
424.431
432.512
440.061
447.078
453.586
459.629
465.285
470.666
475.933
481.296
487.009
493.382
500.837
509.783
520.604
533.636
549.13
567.198
587.763
610.517
634.901
660.124
685.198
708.942
730.294
748.33
762.326
771.778
776.357
776.065
771.182
762.086
749.232
733.219
714.624
693.998
671.85
648.661
624.855
600.789
576.757
553.002
529.719
507.056
485.121
463.989
443.711
424.312
405.802
388.175
371.415
355.499
340.397
326.075
312.498
299.628
287.427
275.859
264.885
254.472
244.583
235.188
226.254
217.752
209.654
201.935
194.57
187.538
180.817
174.388
168.234
162.339
156.688
151.266
146.062
141.062
136.257
131.635
127.187
122.904
118.779
114.803
110.969
107.271
103.702
100.257
96.9299
93.7156
90.6095
87.6071
84.7042
81.8968
79.1812
76.5539
74.0115
71.5509
69.169
66.8632
64.6306
62.4688
60.3754
58.3481
56.3846
54.483
52.6412
50.8574
49.1297
47.4566
45.8363
44.2673
42.7483
41.2777
39.8542
38.4766
37.1436
35.8542
34.6073
33.4017
32.2368
31.1114
30.0251
28.9771
27.967
26.9946
26.0599
25.1633
24.3055
23.4879
22.7121
21.9805
21.295
20.6537
20.0543
174.627
60.5169
44.9924
43.3665
45.4523
48.9303
53.008
57.3668
61.8816
66.516
71.2762
76.1873
81.2824
86.5966
92.1634
98.014
104.176
110.672
117.522
124.74
132.338
140.322
148.694
157.455
166.596
176.106
185.972
196.177
206.701
217.518
228.603
239.923
251.447
263.137
274.955
286.858
298.803
310.742
322.627
334.406
346.026
357.433
368.571
379.383
389.812
399.802
409.299
418.253
426.62
434.363
441.461
447.91
453.727
458.964
463.71
468.11
472.37
476.77
481.634
487.468
494.786
504.101
515.898
530.581
548.41
569.415
593.335
619.583
647.284
675.385
702.276
726.757
747.764
764.469
776.307
783.011
784.592
781.301
773.546
761.834
746.748
728.889
708.839
687.14
664.284
640.708
616.785
592.823
569.075
545.744
522.984
500.911
479.606
459.123
439.493
420.729
402.829
385.781
369.563
354.149
339.508
325.605
312.405
299.873
287.973
276.668
265.926
255.712
245.994
236.743
227.93
219.528
211.511
203.856
196.54
189.543
182.846
176.432
170.284
164.387
158.728
153.292
148.068
143.045
138.213
133.561
129.08
124.763
120.601
116.587
112.714
108.976
105.366
101.879
98.5104
95.2542
92.106
89.0615
86.1166
83.2673
80.5101
77.8413
75.2577
72.7561
70.3337
67.9877
65.7153
63.5142
61.3818
59.3159
57.3143
55.3751
53.4962
51.6758
49.9121
48.2035
46.5483
44.9452
43.3925
41.889
40.4333
39.0243
37.6607
36.3415
35.0656
33.8321
32.6403
31.4892
30.3784
29.3073
28.2758
27.2838
26.3315
25.4196
24.549
23.721
22.937
22.1983
21.5019
20.8458
169.785
60.312
43.7103
41.1291
42.4236
45.2234
48.7089
52.5385
56.5664
60.7399
65.0525
69.5208
74.1721
79.038
84.1504
89.5398
95.2342
101.258
107.632
114.374
121.497
129.011
136.92
145.228
153.93
163.02
172.487
182.318
192.494
202.993
213.793
224.863
236.173
247.688
259.371
271.181
283.073
295.001
306.917
318.767
330.498
342.051
353.368
364.388
375.048
385.284
395.033
404.233
412.827
420.762
427.995
434.499
440.267
445.32
449.719
453.58
457.091
460.53
464.23
468.739
474.65
482.585
493.168
506.964
524.384
545.577
570.327
598.006
627.595
657.786
687.077
714.054
737.503
756.506
770.464
779.098
782.417
780.674
774.296
763.817
749.83
732.949
713.772
692.854
670.696
647.739
624.362
600.878
577.544
554.566
532.101
510.268
489.152
468.81
449.277
430.569
412.687
395.623
379.358
363.871
349.132
335.11
321.774
309.09
297.025
285.546
274.619
264.215
254.302
244.853
235.84
227.237
219.02
211.166
203.653
196.463
189.576
182.975
176.643
170.568
164.733
159.127
153.738
148.553
143.564
138.759
134.131
129.67
125.368
121.219
117.214
113.348
109.614
106.007
102.521
99.1514
95.8929
92.7411
89.6918
86.741
83.8848
81.1196
78.4421
75.849
73.3372
70.9039
68.5462
66.2617
64.0478
61.9021
59.8224
57.8067
55.8529
53.9591
52.1235
50.3443
48.62
46.9491
45.3299
43.7613
42.2417
40.7701
39.3452
37.966
36.6313
35.3404
34.0923
32.8863
31.7219
30.5986
29.5161
28.4743
27.4735
26.514
25.5966
24.7221
23.8914
23.1049
22.3594
21.6542
161.572
59.8728
42.7676
39.3584
39.9073
42.047
44.9457
48.246
51.7849
55.4935
59.3517
63.3658
67.5555
71.9471
76.5691
81.4499
86.6167
92.0941
97.9039
104.065
110.592
117.497
124.789
132.472
140.546
149.009
157.853
167.068
176.64
186.551
196.78
207.303
218.091
229.114
240.335
251.718
263.222
274.802
286.412
298
309.513
320.896
332.09
343.032
353.659
363.905
373.703
382.986
391.687
399.745
407.104
413.719
419.563
424.634
428.968
432.649
435.84
438.8
441.877
445.616
450.643
457.651
467.369
480.492
497.567
518.846
544.161
572.853
603.807
635.58
666.58
695.287
720.41
740.987
756.412
766.416
771.026
770.512
765.314
755.981
743.113
727.325
709.212
689.325
668.162
646.156
623.678
601.04
578.492
556.238
534.433
513.195
492.611
472.738
453.614
435.257
417.672
400.855
384.791
369.461
354.841
340.904
327.62
314.961
302.896
291.396
280.43
269.97
259.989
250.461
241.359
232.66
224.341
216.381
208.76
201.459
194.46
187.747
181.304
175.117
169.173
163.459
157.964
152.675
147.584
142.68
137.955
133.399
129.005
124.766
120.675
116.724
112.909
109.222
105.658
102.213
98.8814
95.6583
92.5396
89.5211
86.5988
83.7692
81.0287
78.3739
75.8018
73.3093
70.8936
68.5521
66.2821
64.0813
61.9474
59.8782
57.8716
55.9258
54.0388
52.2089
50.4345
48.714
47.0459
45.4289
43.8615
42.3426
40.8711
39.4458
38.0657
36.7299
35.4376
34.1881
32.9808
31.8153
30.6914
29.6088
28.5678
27.5686
26.6117
25.6977
24.8268
23.9993
23.2116
22.4648
149.892
58.8686
42.0439
38.0418
37.9448
39.4766
41.8183
44.6081
47.6713
50.9253
54.337
57.9016
61.6298
65.5409
69.6586
74.0078
78.6135
83.4993
88.6867
94.195
100.041
106.237
112.795
119.722
127.021
134.693
142.735
151.141
159.899
168.998
178.42
188.145
198.149
208.406
218.886
229.554
240.375
251.308
262.311
273.337
284.337
295.258
306.045
316.639
326.98
337.002
346.641
355.829
364.499
372.585
380.026
386.77
392.778
398.032
402.548
406.39
409.695
412.698
415.756
419.399
424.248
431.024
440.523
453.531
470.691
492.321
518.257
547.775
579.649
612.324
644.139
673.546
699.266
720.37
736.301
746.839
752.054
752.242
747.853
739.437
727.586
712.897
695.945
677.259
657.314
636.523
615.239
593.756
572.315
551.107
530.282
509.954
490.206
471.095
452.66
434.922
417.888
401.558
385.921
370.962
356.661
342.996
329.942
317.474
305.565
294.189
283.322
272.936
263.008
253.515
244.432
235.739
227.415
219.441
211.797
204.467
197.434
190.683
184.2
177.97
171.981
166.221
160.678
155.343
150.205
145.255
140.483
135.883
131.445
127.163
123.03
119.039
115.183
111.458
107.857
104.375
101.007
97.7496
94.597
91.5454
88.5908
85.7294
82.9577
80.2723
77.6698
75.1474
72.7021
70.3311
68.0318
65.8018
63.6387
61.5403
59.5046
57.5295
55.6132
53.7538
51.9498
50.1995
48.5015
46.8543
45.2567
43.7074
42.2053
40.7494
39.3386
37.972
36.6489
35.3686
34.1306
32.9344
31.7797
30.6666
29.5949
28.565
27.5771
26.6315
25.7283
24.8673
24.045
23.2631
134.819
56.9409
41.322
37.0768
36.5027
37.5258
39.3755
41.7006
44.3234
47.1521
50.1428
53.2797
56.5644
60.0085
63.6295
67.4478
71.4852
75.7631
80.3021
85.1213
90.2377
95.6661
101.419
107.505
113.933
120.705
127.822
135.283
143.081
151.207
159.651
168.396
177.425
186.716
196.243
205.98
215.895
225.955
236.12
246.352
256.606
266.836
276.992
287.021
296.868
306.473
315.777
324.716
333.229
341.252
348.726
355.6
361.832
367.402
372.316
376.629
380.463
384.029
387.73
392.041
397.556
404.995
415.174
428.917
446.894
469.4
496.184
526.383
558.638
591.322
622.789
651.578
676.535
696.864
712.123
722.183
727.173
727.414
723.36
715.541
704.521
690.86
675.088
657.696
639.118
619.732
599.861
579.775
559.691
539.787
520.201
501.037
482.375
464.269
446.758
429.863
413.595
397.956
382.94
368.535
354.729
341.501
328.833
316.704
305.091
293.974
283.33
273.137
263.375
254.023
245.061
236.47
228.232
220.33
212.746
205.466
198.475
191.757
185.301
179.094
173.123
167.377
161.846
156.52
151.389
146.445
141.678
137.082
132.647
128.368
124.237
120.248
116.394
112.67
109.071
105.591
102.226
98.9696
95.8186
92.7684
89.8151
86.9548
84.1838
81.4988
78.8964
76.3736
73.9274
71.5549
69.2536
67.0209
64.8545
62.752
60.7115
58.7307
56.8079
54.9413
53.1291
51.3699
49.662
48.0041
46.3949
44.8332
43.3179
41.8479
40.4223
39.0401
37.7008
36.4036
35.1481
33.9337
32.7604
31.6279
30.5363
29.4857
28.4763
27.5083
26.5814
25.6954
24.847
24.0381
116.737
53.7473
40.3025
36.2795
35.4861
36.1668
37.6416
39.5892
41.8392
44.2973
46.9129
49.6622
52.5384
55.5461
58.6966
62.0056
65.4911
69.1722
73.0679
77.1967
81.5758
86.2209
91.1461
96.363
101.881
107.708
113.847
120.301
127.069
134.147
141.528
149.202
157.156
165.376
173.841
182.53
191.419
200.479
209.679
218.987
228.364
237.771
247.165
256.502
265.731
274.804
283.666
292.264
300.544
308.452
315.937
322.956
329.476
335.484
340.994
346.067
350.837
355.503
360.51
366.286
373.385
382.498
394.413
409.917
429.589
453.566
481.363
511.897
543.686
575.134
604.761
631.347
653.993
672.124
685.468
694.006
697.927
697.566
693.359
685.798
675.392
662.64
648.013
631.941
614.806
596.939
578.621
560.088
541.534
523.112
504.946
487.13
469.735
452.813
436.399
420.517
405.179
390.39
376.148
362.446
349.275
336.62
324.468
312.803
301.606
290.861
280.549
270.654
261.158
252.043
243.293
234.892
226.824
219.074
211.628
204.471
197.591
190.976
184.612
178.49
172.597
166.924
161.461
156.198
151.126
146.238
141.525
136.979
132.593
128.361
124.275
120.329
116.518
112.836
109.277
105.836
102.509
99.2898
96.1749
93.1599
90.2408
87.4137
84.6748
82.0209
79.4484
76.9544
74.5358
72.1898
69.9136
67.7048
65.5608
63.4795
61.4587
59.4962
57.5903
55.739
53.9407
52.1938
50.4967
48.8482
47.2469
45.6915
44.1811
42.7145
41.2909
39.9094
38.5694
37.2701
36.0113
34.7923
33.6131
32.4736
31.3736
30.3134
29.293
28.3125
27.3716
26.4699
25.6045
24.7777
96.0362
48.9287
38.4984
35.2479
34.6047
35.2092
36.5095
38.2335
40.2312
42.4153
44.7356
47.1654
49.6938
52.3204
55.0526
57.9024
60.8848
64.0169
67.3164
70.8013
74.4888
78.3956
82.537
86.9267
91.5768
96.4974
101.696
107.179
112.95
119.008
125.353
131.979
138.879
146.044
153.46
161.112
168.98
177.044
185.28
193.659
202.153
210.729
219.351
227.981
236.581
245.107
253.517
261.768
269.816
277.621
285.148
292.367
299.266
305.851
312.161
318.289
324.401
330.753
337.772
345.846
355.49
367.337
382.084
400.361
422.489
448.235
476.732
506.652
536.522
564.99
590.957
613.608
632.39
646.996
657.325
663.457
665.613
664.116
659.359
651.767
641.776
629.806
616.253
601.475
585.79
569.475
552.765
535.856
518.911
502.062
485.413
469.045