/*--------------------------------*- C++ -*----------------------------------*\
| =========                 |                                                 |
| \\      /  F ield         | OpenFOAM: The Open Source CFD Toolbox           |
|  \\    /   O peration     | Version:  2.2.x                                 |
|   \\  /    A nd           | Web:      www.OpenFOAM.org                      |
|    \\/     M anipulation  |                                                 |
\*---------------------------------------------------------------------------*/
FoamFile
{
    version     2.0;
    format      ascii;
    class       volScalarField;
    location    "150";
    object      k;
}
// * * * * * * * * * * * * * * * * * * * * * * * * * * * * * * * * * * * * * //

dimensions      [0 2 -2 0 0 0 0];

internalField   nonuniform List<scalar> 
12225
(
0.77325
1.11724
1.35398
1.50311
1.59036
1.63636
1.65581
1.65863
1.65131
1.63802
1.62137
1.60301
1.58394
1.56475
1.54576
1.52708
1.50846
1.49097
0.492809
0.515925
0.520122
0.519436
0.516116
0.511273
0.505871
0.500595
0.49587
0.491933
0.488893
0.486783
0.485588
0.485278
0.485841
0.487382
0.49067
0.496263
0.411994
0.424052
0.421806
0.414114
0.404169
0.393351
0.382397
0.371738
0.361634
0.35224
0.343638
0.335862
0.328917
0.32279
0.317467
0.312956
0.309303
0.30648
0.381864
0.385943
0.386334
0.383937
0.379742
0.37445
0.368528
0.362289
0.355945
0.349642
0.343479
0.337525
0.331825
0.326407
0.321289
0.316484
0.311993
0.307828
0.375243
0.375517
0.374928
0.3734
0.371084
0.368169
0.36483
0.361208
0.357415
0.353532
0.349625
0.345741
0.341914
0.33817
0.334528
0.331
0.32759
0.324321
0.37347
0.372202
0.370878
0.369317
0.367483
0.365399
0.363111
0.360669
0.358119
0.355502
0.352848
0.350186
0.347535
0.344913
0.342332
0.339802
0.337329
0.334938
0.372984
0.3711
0.369343
0.367613
0.365855
0.364044
0.362175
0.360256
0.358298
0.356316
0.354322
0.352329
0.350347
0.348385
0.34645
0.34455
0.342688
0.340889
0.372869
0.370791
0.368854
0.36701
0.365224
0.363468
0.361728
0.359995
0.358271
0.356555
0.354851
0.353165
0.3515
0.349861
0.34825
0.346673
0.345133
0.343649
0.372831
0.37068
0.368659
0.366748
0.364925
0.363172
0.361475
0.359821
0.358206
0.356625
0.355077
0.353561
0.352077
0.350627
0.349211
0.347832
0.346492
0.345207
0.372816
0.370636
0.368575
0.366624
0.364772
0.363007
0.361318
0.359695
0.358133
0.356624
0.355164
0.35375
0.35238
0.351053
0.349768
0.348525
0.347325
0.346181
0.372809
0.370618
0.368541
0.366571
0.364701
0.362924
0.361232
0.359616
0.358072
0.356594
0.355176
0.353815
0.352508
0.351251
0.350043
0.348883
0.347771
0.346717
0.372805
0.370609
0.368526
0.366548
0.364671
0.362886
0.361189
0.359573
0.358033
0.356564
0.355162
0.353823
0.352543
0.35132
0.350151
0.349034
0.347969
0.346965
0.372802
0.370603
0.368517
0.366537
0.364656
0.362868
0.361168
0.35955
0.358011
0.356544
0.355147
0.353815
0.352545
0.351335
0.350182
0.349084
0.348039
0.347057
0.3728
0.370599
0.368512
0.36653
0.364647
0.362858
0.361157
0.359539
0.357999
0.356533
0.355137
0.353808
0.352543
0.351338
0.35019
0.349099
0.348062
0.347088
0.372798
0.370596
0.368507
0.366525
0.364641
0.362852
0.36115
0.359533
0.357993
0.356528
0.355134
0.353807
0.352544
0.351341
0.350197
0.349108
0.348074
0.347103
0.372796
0.370594
0.368504
0.366521
0.364637
0.362847
0.361147
0.359529
0.357991
0.356528
0.355135
0.35381
0.352548
0.351348
0.350206
0.349119
0.348086
0.347116
0.372795
0.370592
0.368502
0.366518
0.364634
0.362845
0.361145
0.359528
0.357991
0.35653
0.355139
0.353815
0.352556
0.351358
0.350217
0.349132
0.3481
0.347131
0.372794
0.370591
0.368501
0.366517
0.364634
0.362845
0.361146
0.35953
0.357995
0.356535
0.355145
0.353824
0.352566
0.351369
0.35023
0.349146
0.348115
0.347146
0.372794
0.370591
0.368501
0.366517
0.364635
0.362847
0.361149
0.359535
0.358001
0.356542
0.355155
0.353835
0.352579
0.351384
0.350246
0.349162
0.348132
0.347163
0.372794
0.370591
0.368502
0.36652
0.364638
0.362852
0.361155
0.359543
0.358011
0.356554
0.355168
0.35385
0.352596
0.351402
0.350265
0.349183
0.348153
0.347185
0.372795
0.370593
0.368504
0.366524
0.364644
0.36286
0.361166
0.359557
0.358027
0.356573
0.35519
0.353875
0.352623
0.351431
0.350296
0.349214
0.348185
0.347216
0.372796
0.370596
0.36851
0.366534
0.36466
0.362882
0.361195
0.359594
0.358071
0.356624
0.355247
0.353936
0.352687
0.351496
0.35036
0.349276
0.348242
0.347268
0.372799
0.370606
0.368534
0.366575
0.364722
0.362968
0.361304
0.359722
0.358217
0.356781
0.355409
0.354096
0.35284
0.351635
0.350479
0.34937
0.348306
0.347297
0.372814
0.370661
0.368651
0.366766
0.36499
0.363304
0.361695
0.360149
0.358657
0.357214
0.355815
0.354458
0.353139
0.351859
0.350616
0.34941
0.348241
0.347122
0.37291
0.370958
0.369195
0.367548
0.365961
0.364396
0.362836
0.361272
0.359705
0.358136
0.356573
0.35502
0.353483
0.351967
0.350477
0.349016
0.347588
0.346211
0.373467
0.372365
0.371365
0.370242
0.368913
0.367373
0.365651
0.363789
0.361825
0.359793
0.357722
0.355635
0.353549
0.35148
0.349438
0.347433
0.345472
0.343575
0.376461
0.378226
0.378829
0.378165
0.376541
0.374266
0.371562
0.368586
0.365444
0.362211
0.358941
0.355674
0.352439
0.349258
0.346146
0.343117
0.34018
0.337355
0.392617
0.401368
0.402203
0.399561
0.395354
0.390393
0.38507
0.379587
0.374067
0.368589
0.363209
0.35797
0.352902
0.348028
0.343362
0.338911
0.334678
0.330674
0.438274
0.449747
0.450758
0.449514
0.44775
0.445754
0.443609
0.441363
0.439053
0.436716
0.434393
0.432119
0.429926
0.42784
0.425876
0.424041
0.422321
0.420659
0.544747
0.705349
0.836411
0.9462
1.04215
1.12396
1.19215
1.24784
1.29244
1.32745
1.35432
1.37442
1.38894
1.39891
1.4052
1.40857
1.40963
1.40884
0.0227657
0.0554372
0.0834106
0.110481
0.137154
0.163839
0.190361
0.216718
0.242928
0.269005
0.294956
0.320788
0.346504
0.372107
0.397598
0.422981
0.448257
0.47343
0.498502
0.523476
0.548354
0.573139
0.597833
0.622439
0.646959
0.671395
0.695747
0.720016
0.744203
0.768307
0.792326
0.816258
0.840099
0.863847
0.887494
0.911036
0.934464
0.957769
0.980941
1.00397
1.02683
1.04953
1.07202
1.09431
1.11636
1.13816
1.15967
1.18088
1.20175
1.22225
1.24235
1.26203
1.28126
1.30003
1.31831
1.33612
1.35347
1.37041
1.38662
1.40141
1.41459
1.42598
1.43539
1.44262
1.4475
1.44985
1.44949
1.44629
1.44014
1.43096
1.41875
1.40351
1.38532
1.36431
1.34065
1.31457
1.28632
1.25618
1.22447
1.19148
1.15754
1.12294
1.08798
1.05291
1.01798
0.983393
0.949336
0.915959
0.883385
0.851712
0.821012
0.791338
0.762719
0.735172
0.708699
0.683285
0.65891
0.635555
0.613184
0.591743
0.571212
0.551561
0.532704
0.514628
0.497342
0.480678
0.464731
0.449763
0.435938
0.423652
0.413759
0.404752
0.396274
0.38822
0.380539
0.3732
0.366175
0.359438
0.352965
0.346736
0.340734
0.334945
0.329355
0.323955
0.318733
0.313679
0.308783
0.304038
0.299436
0.294969
0.290631
0.286417
0.282321
0.27834
0.274469
0.270703
0.267039
0.263472
0.260001
0.256621
0.253331
0.250128
0.24701
0.243975
0.241019
0.238142
0.235342
0.232617
0.229965
0.227385
0.224876
0.222437
0.220067
0.217764
0.215527
0.213355
0.211248
0.209205
0.207226
0.205309
0.203453
0.201658
0.199922
0.198245
0.196624
0.195057
0.193545
0.192139
0.190907
0.189794
0.188763
0.18779
0.186852
0.185929
0.184989
0.183992
0.182939
0.181784
0.180392
0.177911
0.0726865
0.127687
0.168427
0.207197
0.245673
0.2838
0.32141
0.358517
0.395212
0.431594
0.467749
0.503749
0.539653
0.575508
0.611351
0.647209
0.683105
0.719052
0.75506
0.791134
0.827278
0.863491
0.899773
0.936122
0.972535
1.00901
1.04555
1.08215
1.11881
1.15554
1.19234
1.2292
1.26615
1.30318
1.34031
1.37754
1.41489
1.45236
1.48997
1.52773
1.56565
1.60374
1.64202
1.68049
1.71916
1.75804
1.79712
1.8364
1.87586
1.9155
1.95527
1.99515
2.03507
2.07499
2.11481
2.15443
2.19376
2.23266
2.27037
2.30684
2.34179
2.37489
2.40574
2.43391
2.45897
2.48043
2.49783
2.51071
2.51865
2.52128
2.51833
2.50959
2.495
2.4746
2.44854
2.4171
2.38066
2.3397
2.29474
2.24637
2.19518
2.14179
2.08677
2.03068
1.97404
1.91729
1.86084
1.80505
1.75018
1.69648
1.64413
1.59327
1.54399
1.49635
1.45039
1.4061
1.36346
1.32244
1.28302
1.24511
1.20862
1.17356
1.1398
1.10716
1.07586
1.04546
1.01588
0.987871
0.961342
0.93597
0.912054
0.889195
0.867298
0.846303
0.826154
0.806794
0.788172
0.770239
0.752953
0.736273
0.720162
0.704586
0.689513
0.674913
0.66076
0.647031
0.633704
0.62076
0.608179
0.595945
0.584043
0.572459
0.561179
0.550192
0.539484
0.529046
0.518869
0.508942
0.499258
0.489809
0.480586
0.471583
0.462792
0.454208
0.445824
0.437636
0.429637
0.421823
0.414189
0.406731
0.399445
0.392325
0.385369
0.378571
0.371929
0.36544
0.3591
0.352907
0.346857
0.340948
0.335177
0.329541
0.324039
0.318668
0.313425
0.30831
0.303321
0.298461
0.29374
0.289155
0.284701
0.280372
0.276164
0.272072
0.268091
0.264222
0.26041
0.256783
0.253591
0.252273
0.109063
0.189213
0.244448
0.293426
0.341136
0.388608
0.435884
0.482928
0.529768
0.576462
0.62307
0.669649
0.716242
0.762883
0.809597
0.856397
0.903288
0.950267
0.997323
1.04444
1.09161
1.1388
1.18599
1.23315
1.28027
1.32733
1.37429
1.42115
1.46789
1.5145
1.56096
1.60727
1.65343
1.69944
1.7453
1.79102
1.8366
1.88208
1.92746
1.97276
2.01802
2.06326
2.10852
2.15381
2.1992
2.24469
2.29035
2.33619
2.38225
2.42855
2.47512
2.52195
2.56904
2.61637
2.66387
2.71148
2.75905
2.80645
2.85324
2.89925
2.94415
2.98753
3.02889
3.06769
3.10329
3.13503
3.16222
3.18414
3.20014
3.20958
3.21196
3.20687
3.19409
3.17354
3.14533
3.10973
3.06719
3.01829
2.9637
2.9042
2.84057
2.77364
2.70421
2.63304
2.56083
2.48821
2.41576
2.34397
2.27322
2.20385
2.13613
2.07026
2.00636
1.94453
1.88482
1.82726
1.7718
1.71839
1.66704
1.61763
1.56993
1.52413
1.48001
1.43701
1.39606
1.35681
1.31912
1.28313
1.24881
1.21604
1.18478
1.15483
1.12607
1.09844
1.07187
1.0463
1.02167
0.997915
0.974994
0.952853
0.931446
0.910731
0.890669
0.871223
0.85236
0.83405
0.816266
0.798981
0.782172
0.765817
0.749896
0.73439
0.719282
0.704558
0.690202
0.676202
0.662543
0.649214
0.636204
0.623502
0.611098
0.598982
0.587145
0.575581
0.564281
0.553237
0.542443
0.531892
0.521578
0.511494
0.501635
0.491995
0.48257
0.473354
0.464343
0.455532
0.446917
0.438494
0.430259
0.422209
0.41434
0.406648
0.399132
0.391788
0.384615
0.377609
0.370769
0.364093
0.357584
0.351238
0.345057
0.339039
0.333186
0.327501
0.321998
0.316704
0.311659
0.307037
0.303219
0.301521
0.141533
0.237403
0.304825
0.362488
0.417484
0.471903
0.526217
0.580488
0.63474
0.689011
0.743339
0.797764
0.852317
0.907018
0.961881
1.01691
1.07209
1.12741
1.18284
1.23836
1.29393
1.3495
1.40503
1.46049
1.51583
1.57101
1.62598
1.68071
1.73517
1.78932
1.84314
1.89661
1.9497
2.00241
2.05473
2.10666
2.15821
2.20938
2.26019
2.31068
2.36087
2.41081
2.46053
2.51011
2.5596
2.60906
2.65858
2.70823
2.7581
2.80826
2.85879
2.90976
2.96123
3.01324
3.06581
3.1189
3.17246
3.22639
3.28045
3.33444
3.388
3.4407
3.49197
3.54115
3.58747
3.63007
3.66802
3.70036
3.72614
3.74446
3.75452
3.75569
3.74752
3.72979
3.70252
3.66595
3.62054
3.56697
3.50604
3.43867
3.36585
3.28858
3.20787
3.12467
3.03989
2.95431
2.86867
2.78358
2.69957
2.61704
2.53633
2.45773
2.38142
2.30748
2.236
2.16707
2.10061
2.03643
1.97478
1.91551
1.85786
1.8028
1.75012
1.6995
1.6511
1.60479
1.56046
1.51806
1.47752
1.43875
1.40162
1.36598
1.33172
1.29876
1.26702
1.23644
1.20696
1.17851
1.15103
1.12447
1.09877
1.07389
1.04979
1.02641
1.00372
0.981693
0.960288
0.939477
0.919232
0.89953
0.880345
0.861656
0.843443
0.825687
0.80837
0.791477
0.774992
0.758902
0.743194
0.727854
0.712871
0.698234
0.683932
0.669956
0.656296
0.642944
0.629892
0.617131
0.604653
0.592453
0.580522
0.568854
0.557444
0.546285
0.535373
0.5247
0.514263
0.504057
0.494076
0.484318
0.474778
0.465452
0.456337
0.44743
0.438728
0.430228
0.421928
0.413826
0.405921
0.398212
0.390701
0.38339
0.376286
0.369399
0.362757
0.356406
0.350446
0.345014
0.340502
0.337813
0.169257
0.273083
0.349404
0.413801
0.474402
0.533913
0.593189
0.652458
0.711807
0.771295
0.830973
0.890888
0.951078
1.01157
1.07237
1.13349
1.19492
1.25663
1.3186
1.38077
1.44311
1.50555
1.56804
1.63052
1.69292
1.75517
1.81722
1.879
1.94046
2.00154
2.06219
2.12236
2.18202
2.24112
2.29965
2.35758
2.41489
2.4716
2.52769
2.58319
2.63812
2.69253
2.74645
2.79996
2.85313
2.90605
2.95882
3.01156
3.0644
3.11748
3.17092
3.22489
3.27952
3.33494
3.39126
3.44854
3.50683
3.5661
3.62633
3.68736
3.7489
3.81053
3.87165
3.93152
3.98924
4.04376
4.09391
4.13843
4.17603
4.20549
4.22566
4.23558
4.23455
4.22214
4.19822
4.16299
4.1169
4.06071
3.99533
3.92187
3.84149
3.75541
3.66483
3.57095
3.47483
3.37745
3.27968
3.1823
3.08597
2.99117
2.89828
2.8077
2.71971
2.63433
2.55159
2.47189
2.39506
2.32034
2.24889
2.18052
2.11481
2.05195
1.99183
1.93428
1.87924
1.82659
1.77621
1.72798
1.68181
1.63758
1.59517
1.55441
1.51521
1.47746
1.44108
1.40599
1.37214
1.33945
1.30785
1.27729
1.24771
1.21905
1.19127
1.16433
1.13817
1.11275
1.08806
1.06404
1.04067
1.01792
0.995761
0.974173
0.953129
0.93261
0.912595
0.893067
0.874008
0.855402
0.837235
0.819492
0.802159
0.785225
0.768678
0.752505
0.736696
0.721242
0.706134
0.691361
0.676916
0.662789
0.648974
0.635463
0.622249
0.609325
0.596686
0.584324
0.572234
0.560411
0.54885
0.537545
0.526493
0.51569
0.505131
0.494813
0.484733
0.474888
0.465275
0.455892
0.446737
0.437812
0.429118
0.420662
0.412453
0.40451
0.396868
0.389586
0.382775
0.376573
0.371281
0.367479
0.191898
0.297493
0.379342
0.448223
0.512627
0.575509
0.63797
0.700395
0.762954
0.825756
0.888886
0.952418
1.01641
1.08091
1.14594
1.21152
1.27764
1.34429
1.41143
1.47901
1.54698
1.61527
1.6838
1.7525
1.82127
1.89004
1.95872
2.02721
2.09543
2.16331
2.23074
2.29767
2.36402
2.42972
2.49472
2.55896
2.6224
2.68501
2.74677
2.80765
2.86768
2.92685
2.98521
3.0428
3.09969
3.15598
3.21178
3.26723
3.32247
3.37771
3.43313
3.48896
3.54543
3.60278
3.66124
3.721
3.78224
3.84508
3.90974
3.97624
4.0444
4.11388
4.18415
4.25442
4.3237
4.39076
4.45418
4.51237
4.56367
4.6064
4.639
4.66011
4.66868
4.66399
4.64574
4.61401
4.56925
4.51226
4.44411
4.36606
4.2795
4.18585
4.08655
3.98299
3.8765
3.7682
3.65912
3.55018
3.44224
3.33584
3.23131
3.12926
3.03016
2.93387
2.84003
2.75004
2.66361
2.5804
2.50068
2.42438
2.35131
2.28142
2.21458
2.15065
2.0895
2.03099
1.97498
1.92134
1.86994
1.82067
1.77336
1.72788
1.68411
1.64194
1.60128
1.56205
1.52416
1.48755
1.45215
1.41789
1.38471
1.35256
1.32137
1.29111
1.26173
1.23318
1.20542
1.17842
1.15214
1.12655
1.10163
1.07733
1.05365
1.03056
1.00803
0.986043
0.964583
0.94363
0.923167
0.90318
0.883654
0.864574
0.845927
0.827701
0.809885
0.792466
0.775435
0.758781
0.742494
0.726566
0.710988
0.695752
0.68085
0.666275
0.652019
0.638076
0.624439
0.611103
0.598062
0.58531
0.572844
0.560657
0.548747
0.53711
0.525741
0.514638
0.503797
0.493218
0.482899
0.472842
0.463049
0.453531
0.444299
0.435377
0.426806
0.418651
0.411021
0.404045
0.39792
0.393007
0.209596
0.312132
0.396522
0.467718
0.534154
0.598819
0.662923
0.726963
0.791187
0.855756
0.920801
0.98643
1.05273
1.11978
1.18762
1.25628
1.32579
1.39612
1.46725
1.53913
1.61171
1.6849
1.75862
1.83277
1.90726
1.98197
2.05679
2.13161
2.20631
2.28078
2.3549
2.42857
2.50167
2.57411
2.64578
2.7166
2.78647
2.85534
2.92312
2.98978
3.05527
3.11956
3.18265
3.24457
3.30533
3.36503
3.42374
3.4816
3.53878
3.59549
3.65196
3.70849
3.76538
3.823
3.8817
3.94187
4.00383
4.06789
4.13461
4.20426
4.27691
4.3524
4.43032
4.50996
4.59028
4.66993
4.74722
4.82021
4.88677
4.94473
4.99197
5.02664
5.04721
5.05263
5.04233
5.01625
4.97481
4.91885
4.84957
4.76845
4.67709
4.57715
4.47028
4.3581
4.24224
4.12402
4.0045
3.88473
3.76599
3.64888
3.53324
3.42024
3.31087
3.20501
3.10263
3.00414
2.90956
2.81878
2.7318
2.64852
2.56883
2.4926
2.41968
2.34993
2.28319
2.21931
2.15814
2.09952
2.04332
1.98939
1.93759
1.88778
1.83981
1.79359
1.749
1.70595
1.66437
1.62416
1.58527
1.54761
1.51113
1.47576
1.44145
1.40814
1.37578
1.34433
1.31375
1.28399
1.25503
1.22682
1.19933
1.17254
1.14642
1.12094
1.09608
1.07182
1.04813
1.025
1.00241
0.980344
0.958781
0.937709
0.917112
0.896978
0.877294
0.858047
0.839227
0.820821
0.802819
0.785211
0.767989
0.751143
0.734665
0.718547
0.70278
0.687358
0.672274
0.657521
0.643094
0.628987
0.615194
0.601711
0.588534
0.575658
0.563079
0.550795
0.538802
0.5271
0.515688
0.504568
0.493746
0.483231
0.473039
0.463197
0.453747
0.444757
0.436326
0.428576
0.42159
0.415604
0.222683
0.318589
0.403103
0.474738
0.541604
0.606622
0.671022
0.73536
0.799942
0.864978
0.930637
0.997064
1.06438
1.13269
1.20207
1.27258
1.34423
1.41705
1.49101
1.56606
1.64216
1.71923
1.79716
1.87586
1.95521
2.03508
2.11534
2.19586
2.27648
2.35706
2.43747
2.51755
2.59715
2.67615
2.75439
2.83175
2.90809
2.9833
3.05725
3.12985
3.201
3.27063
3.33868
3.40511
3.4699
3.53307
3.59469
3.65483
3.71364
3.77133
3.82813
3.88437
3.94043
3.99676
4.05387
4.1123
4.1726
4.23529
4.3013
4.37129
4.44567
4.52463
4.608
4.69525
4.78541
4.87704
4.96824
5.05667
5.13971
5.21455
5.27844
5.32884
5.36369
5.38148
5.38132
5.36297
5.32677
5.27363
5.20487
5.12215
5.0274
4.92253
4.80937
4.68964
4.56552
4.43858
4.30975
4.17981
4.05133
3.92485
3.8007
3.67959
3.56208
3.44841
3.3387
3.2331
3.13165
3.03431
2.94102
2.85167
2.76615
2.68432
2.60601
2.53107
2.45934
2.39065
2.32483
2.26174
2.20121
2.14309
2.08724
2.03351
1.98176
1.93187
1.88374
1.83725
1.79233
1.74889
1.70684
1.66612
1.62665
1.58837
1.55123
1.51516
1.48011
1.44604
1.4129
1.38065
1.34925
1.31866
1.28886
1.2598
1.23147
1.20382
1.17685
1.15052
1.12481
1.0997
1.07517
1.05121
1.02779
1.00491
0.982533
0.960658
0.939269
0.918353
0.897896
0.877888
0.858315
0.839169
0.820439
0.802115
0.784189
0.766652
0.749495
0.732711
0.716292
0.700232
0.684525
0.669165
0.654145
0.639461
0.625108
0.611083
0.597381
0.583999
0.570935
0.558188
0.545758
0.533649
0.521867
0.510422
0.499333
0.488627
0.478347
0.468557
0.459345
0.450824
0.442979
0.43598
0.231533
0.318419
0.401253
0.47184
0.537794
0.60194
0.66548
0.728993
0.792819
0.857203
0.92235
0.988437
1.05562
1.12402
1.19376
1.26491
1.33752
1.41161
1.48719
1.56423
1.64266
1.72243
1.80343
1.88555
1.96867
2.05265
2.13734
2.22258
2.30822
2.39406
2.47996
2.56572
2.65117
2.73613
2.82042
2.90387
2.9863
3.06754
3.14743
3.22581
3.30253
3.37746
3.45047
3.52145
3.59034
3.65706
3.72163
3.78405
3.84441
3.90287
3.95964
4.01502
4.06942
4.12334
4.17739
4.23228
4.28877
4.34767
4.41022
4.47758
4.55066
4.63011
4.71618
4.80867
4.90681
5.0092
5.11375
5.21777
5.31804
5.41104
5.49318
5.56117
5.61226
5.64439
5.65629
5.64747
5.61823
5.56953
5.50281
5.41986
5.32305
5.21469
5.0967
4.97031
4.8392
4.70507
4.56922
4.43288
4.29756
4.1642
4.03346
3.90592
3.78206
3.66219
3.54648
3.43505
3.32793
3.2251
3.1265
3.03202
2.94154
2.85491
2.77197
2.69255
2.61649
2.54361
2.47374
2.40673
2.3424
2.28061
2.22119
2.16401
2.10892
2.05581
2.00454
1.95503
1.90716
1.86085
1.81602
1.77259
1.73049
1.68964
1.65
1.61149
1.57407
1.53768
1.50228
1.46783
1.43427
1.40159
1.36973
1.33867
1.30837
1.27882
1.24997
1.22181
1.19431
1.16745
1.14121
1.11556
1.0905
1.06601
1.04205
1.01863
0.995728
0.973326
0.951412
0.929975
0.909001
0.88848
0.868402
0.848756
0.829532
0.810721
0.792314
0.774304
0.756683
0.739444
0.722581
0.706086
0.689954
0.674181
0.658761
0.64369
0.628964
0.614581
0.600539
0.586837
0.573476
0.56046
0.547796
0.535496
0.523579
0.512072
0.501015
0.490468
0.480504
0.471212
0.462551
0.454615
0.236498
0.313048
0.392991
0.461466
0.525476
0.587762
0.649491
0.711243
0.773375
0.836157
0.899816
0.964557
1.03056
1.09799
1.16697
1.23762
1.31
1.38415
1.46011
1.53785
1.61732
1.69848
1.78122
1.86544
1.95101
2.03778
2.1256
2.21429
2.30367
2.39356
2.48375
2.57405
2.66425
2.75415
2.84352
2.93216
3.01985
3.10638
3.19155
3.27513
3.35694
3.43677
3.51444
3.58978
3.66262
3.73286
3.80038
3.86513
3.92712
3.9864
4.04312
4.09754
4.15
4.201
4.25121
4.30142
4.35262
4.40585
4.46264
4.52471
4.59357
4.67048
4.75627
4.85127
4.95509
5.0665
5.18333
5.30253
5.42026
5.53217
5.63366
5.72055
5.78929
5.83721
5.8626
5.86462
5.84358
5.80064
5.73734
5.65511
5.55746
5.44704
5.32624
5.19721
5.06255
4.92428
4.78409
4.64339
4.50347
4.36538
4.22989
4.09762
3.96904
3.84448
3.72416
3.6082
3.49664
3.38946
3.28662
3.188
3.09349
3.00293
2.91617
2.83304
2.75337
2.67698
2.6037
2.53337
2.46582
2.4009
2.33844
2.27831
2.22037
2.16448
2.11052
2.0584
2.008
1.95923
1.912
1.86624
1.82187
1.77881
1.73702
1.69641
1.65695
1.61857
1.58123
1.54488
1.50948
1.47499
1.44137
1.40859
1.37662
1.34542
1.31497
1.28523
1.2562
1.22784
1.20013
1.17305
1.14657
1.12069
1.09539
1.07064
1.04643
1.02275
0.999581
0.976912
0.954729
0.933021
0.911775
0.890983
0.870632
0.850714
0.83122
0.812141
0.793469
0.775198
0.75732
0.739828
0.722718
0.705983
0.689619
0.673623
0.657989
0.642716
0.627802
0.613247
0.599053
0.585225
0.571769
0.558698
0.546032
0.533795
0.522027
0.510777
0.500107
0.490082
0.48066
0.471869
0.23787
0.303709
0.380088
0.445808
0.507176
0.56688
0.626068
0.68532
0.745001
0.805392
0.866741
0.92927
0.993183
1.05866
1.12586
1.19492
1.26592
1.33894
1.41401
1.49114
1.5703
1.65144
1.73449
1.81933
1.90584
1.99389
2.08329
2.17388
2.26547
2.35785
2.45082
2.54416
2.63764
2.73103
2.8241
2.9166
3.00829
3.09893
3.18827
3.27605
3.36204
3.44598
3.52763
3.60676
3.68316
3.7566
3.82692
3.89397
3.95765
4.01792
4.07483
4.12852
4.17926
4.22748
4.2738
4.31906
4.36434
4.41095
4.46054
4.51542
4.57777
4.64954
4.73233
4.82715
4.93421
5.05263
5.18028
5.31378
5.44868
5.5797
5.70093
5.8072
5.89415
5.9585
5.99802
6.01148
5.99925
5.96289
5.90437
5.82598
5.73069
5.62137
5.50075
5.37137
5.23565
5.09574
4.95349
4.81045
4.66794
4.52704
4.3886
4.25329
4.1216
3.99389
3.87039
3.75124
3.6365
3.52617
3.4202
3.31849
3.22092
3.12735
3.03763
2.95159
2.86906
2.78988
2.71386
2.64085
2.57069
2.5032
2.43825
2.37569
2.31538
2.25719
2.201
2.1467
2.09419
2.04336
1.99414
1.94643
1.90017
1.85528
1.81169
1.76934
1.72818
1.68814
1.64919
1.61126
1.57433
1.53835
1.50327
1.46907
1.43571
1.40316
1.37139
1.34036
1.31007
1.28047
1.25155
1.22328
1.19565
1.16864
1.14222
1.11638
1.0911
1.06636
1.04216
1.01848
0.995294
0.972604
0.950392
0.928648
0.907361
0.88652
0.866118
0.846144
0.826591
0.807451
0.788718
0.770384
0.752444
0.734892
0.717725
0.700937
0.684525
0.668487
0.652822
0.637531
0.622615
0.60808
0.593933
0.580187
0.56686
0.553977
0.541571
0.529686
0.518371
0.507672
0.49756
0.487997
0.236233
0.291396
0.363966
0.426717
0.485109
0.541805
0.597972
0.654202
0.710871
0.768269
0.826652
0.886258
0.947305
1.00999
1.0745
1.14097
1.20953
1.28026
1.35323
1.42845
1.50592
1.58561
1.66745
1.75137
1.83724
1.92489
2.01419
2.10495
2.19698
2.29009
2.38406
2.47865
2.57364
2.66878
2.76383
2.85851
2.95258
3.04576
3.13777
3.22835
3.3172
3.40405
3.48862
3.57061
3.64976
3.72579
3.79845
3.86752
3.9328
3.99415
4.05151
4.10488
4.15443
4.20047
4.24351
4.28434
4.32407
4.36414
4.40628
4.45329
4.50796
4.57299
4.65084
4.74339
4.85162
4.97517
5.11206
5.25864
5.4098
5.55964
5.70011
5.82524
5.92989
6.01023
6.06377
6.08952
6.08785
6.06023
6.00881
5.93622
5.84542
5.73943
5.62119
5.49344
5.35869
5.2192
5.0769
4.93346
4.79024
4.64837
4.50875
4.37209
4.2389
4.10956
3.98433
3.86337
3.74675
3.63449
3.52653
3.42279
3.32318
3.22754
3.13575
3.04763
2.96303
2.88178
2.80372
2.72868
2.65651
2.58706
2.52017
2.4557
2.39353
2.33352
2.27555
2.21952
2.16531
2.11285
2.06202
2.01276
1.96498
1.91861
1.87359
1.82985
1.78733
1.74598
1.70574
1.66657
1.62843
1.59126
1.55504
1.51972
1.48528
1.45166
1.41886
1.38683
1.35555
1.32499
1.29514
1.26595
1.23743
1.20953
1.18225
1.15557
1.12946
1.10391
1.07891
1.05444
1.03048
1.00703
0.984063
0.961577
0.939557
0.917994
0.896877
0.876198
0.855948
0.836119
0.816704
0.797696
0.77909
0.76088
0.743061
0.72563
0.708584
0.691919
0.675637
0.659737
0.644222
0.629097
0.614371
0.600056
0.586169
0.572732
0.559776
0.547336
0.535451
0.524153
0.51341
0.503184
0.231789
0.277671
0.346417
0.406259
0.461623
0.515133
0.568012
0.620891
0.674167
0.728139
0.783071
0.839207
0.896773
0.955981
1.01702
1.08006
1.14522
1.21264
1.28236
1.35445
1.42892
1.50574
1.58488
1.66626
1.74978
1.83531
1.9227
2.01179
2.10239
2.1943
2.28731
2.38119
2.47572
2.57064
2.66569
2.76062
2.85516
2.94901
3.0419
3.13353
3.22361
3.31182
3.39786
3.48141
3.56216
3.63979
3.714
3.78449
3.85099
3.91328
3.97118
4.02459
4.07355
4.11822
4.159
4.19655
4.23191
4.26658
4.30233
4.34224
4.38963
4.44787
4.52029
4.60975
4.7181
4.84565
4.99063
5.14906
5.31498
5.48106
5.63934
5.78251
5.9045
6.00087
6.06889
6.10747
6.11695
6.09885
6.0555
5.98971
5.9046
5.80334
5.68901
5.5645
5.43242
5.2951
5.15456
5.0125
4.87035
4.72927
4.59018
4.45381
4.3207
4.19126
4.06575
3.94434
3.82713
3.71414
3.60534
3.50067
3.40002
3.30327
3.21029
3.12093
3.03504
2.95247
2.87305
2.79664
2.72309
2.65224
2.58397
2.51813
2.45459
2.39323
2.33395
2.27662
2.22115
2.16744
2.11541
2.06497
2.01605
1.96857
1.92247
1.87768
1.83415
1.79181
1.75062
1.71053
1.67149
1.63346
1.5964
1.56026
1.52502
1.49065
1.4571
1.42435
1.39237
1.36113
1.33061
1.30078
1.27163
1.24312
1.21523
1.18796
1.16127
1.13516
1.1096
1.08458
1.06008
1.03609
1.0126
0.989589
0.967052
0.944976
0.923351
0.902166
0.881414
0.861087
0.841176
0.821675
0.802578
0.783879
0.765575
0.747661
0.730134
0.712993
0.696237
0.679867
0.663887
0.648301
0.633118
0.61835
0.604013
0.590127
0.576718
0.563816
0.551449
0.539641
0.528353
0.517576
0.224203
0.262715
0.327979
0.385248
0.437825
0.488259
0.537851
0.587297
0.637028
0.687361
0.738564
0.790885
0.844553
0.899785
0.956777
1.01571
1.07672
1.13995
1.20548
1.27338
1.34368
1.41639
1.49148
1.5689
1.64857
1.73038
1.8142
1.89989
1.98726
2.07614
2.16633
2.25761
2.34974
2.44249
2.53562
2.62885
2.72192
2.81454
2.90644
2.99731
3.08685
3.17474
3.26066
3.34428
3.42526
3.50327
3.57796
3.649
3.71607
3.77887
3.83714
3.89071
3.93948
3.98349
4.02302
4.05858
4.09109
4.12202
4.15322
4.18789
4.22961
4.28235
4.35018
4.43691
4.54535
4.67652
4.82896
4.99843
5.17825
5.36007
5.53501
5.69479
5.83261
5.94355
6.02468
6.07488
6.09457
6.0854
6.04986
5.99096
5.91195
5.81613
5.7067
5.58662
5.45856
5.32489
5.18766
5.04859
4.90914
4.77046
4.6335
4.49898
4.36746
4.23936
4.11495
3.99441
3.87786
3.76533
3.65681
3.55224
3.45153
3.3546
3.2613
3.17152
3.08512
3.00194
2.92186
2.84472
2.77039
2.69873
2.62962
2.56292
2.49851
2.43629
2.37613
2.31794
2.26161
2.20707
2.15422
2.10298
2.05328
2.00505
1.95821
1.91272
1.8685
1.8255
1.78368
1.74297
1.70335
1.66475
1.62715
1.5905
1.55477
1.51991
1.48591
1.45272
1.42032
1.38867
1.35776
1.32756
1.29803
1.26917
1.24095
1.21334
1.18632
1.15989
1.13402
1.10869
1.08389
1.0596
1.03581
1.0125
0.989668
0.967297
0.945376
0.923895
0.902846
0.882219
0.862007
0.842202
0.822799
0.803793
0.785178
0.766951
0.749109
0.731651
0.714575
0.697885
0.681582
0.665673
0.650166
0.635071
0.620403
0.606182
0.592429
0.579168
0.566421
0.554203
0.542475
0.531256
0.213222
0.246638
0.308889
0.364078
0.414341
0.462082
0.508666
0.554865
0.601157
0.647882
0.695318
0.74371
0.793288
0.844268
0.896849
0.951213
1.00752
1.06591
1.12649
1.18934
1.25453
1.32207
1.39197
1.4642
1.5387
1.61539
1.69416
1.7749
1.85745
1.94164
2.0273
2.11422
2.20219
2.291
2.38039
2.47011
2.55992
2.64954
2.73869
2.82707
2.91439
3.00034
3.08459
3.16682
3.24669
3.32384
3.39792
3.46859
3.53548
3.59826
3.65664
3.71035
3.75921
3.8032
3.84242
3.87729
3.9086
3.93768
3.96651
3.99829
4.03677
4.08631
4.15168
4.23756
4.34771
4.48383
4.64465
4.82556
5.01895
5.21539
5.40501
5.57876
5.72937
5.85173
5.94291
6.00197
6.02953
6.02745
5.99842
5.94561
5.87238
5.7821
5.67801
5.56309
5.44002
5.31114
5.1785
5.04379
4.90843
4.77358
4.64016
4.50889
4.38033
4.25488
4.13283
4.01439
3.89965
3.78867
3.68146
3.57797
3.47815
3.38189
3.28911
3.19969
3.1135
3.03042
2.95032
2.87307
2.79856
2.72665
2.65722
2.59017
2.52538
2.46274
2.40215
2.34351
2.28675
2.23176
2.17846
2.12679
2.07667
2.02802
1.98079
1.93491
1.89033
1.84699
1.80484
1.76383
1.72392
1.68506
1.64721
1.61033
1.57438
1.53933
1.50514
1.47179
1.43924
1.40746
1.37642
1.3461
1.31648
1.28752
1.25921
1.23152
1.20443
1.17792
1.15198
1.12658
1.10172
1.07736
1.0535
1.03013
1.00723
0.984783
0.962784
0.94122
0.920083
0.899362
0.87905
0.859138
0.839622
0.820495
0.801753
0.783391
0.765407
0.7478
0.730568
0.713715
0.697243
0.681157
0.665465
0.650178
0.63531
0.620878
0.606898
0.593393
0.580376
0.56786
0.555807
0.544241
0.198645
0.229418
0.289094
0.342724
0.391298
0.436962
0.481093
0.524519
0.567762
0.611185
0.655074
0.699675
0.745214
0.791902
0.83994
0.889513
0.940788
0.993914
1.04902
1.1062
1.16555
1.22711
1.29091
1.35695
1.4252
1.49562
1.56813
1.64264
1.71901
1.79713
1.87682
1.95792
2.04024
2.12356
2.20769
2.29237
2.37738
2.46246
2.54734
2.63175
2.7154
2.79799
2.87922
2.95876
3.03629
3.11145
3.18391
3.25331
3.31929
3.38151
3.43963
3.49338
3.54253
3.58697
3.62673
3.66212
3.69381
3.72294
3.75186
3.78353
3.82179
3.87131
3.93748
4.02581
4.14087
4.28487
4.4564
4.65
4.85685
5.06631
5.26762
5.45133
5.61013
5.73913
5.83579
5.89955
5.93141
5.93353
5.90879
5.86047
5.792
5.70677
5.60795
5.49847
5.38094
5.25764
5.1305
5.00118
4.87103
4.74116
4.61245
4.4856
4.36114
4.23947
4.12088
4.00557
3.89364
3.78518
3.6802
3.57867
3.48056
3.38578
3.29426
3.20591
3.12061
3.03826
2.95876
2.88199
2.80784
2.73621
2.66698
2.60006
2.53534
2.47273
2.41213
2.35347
2.29665
2.24159
2.18822
2.13647
2.08627
2.03754
1.99024
1.9443
1.89967
1.85629
1.81412
1.7731
1.73319
1.69434
1.65652
1.61969
1.5838
1.54883
1.51473
1.48148
1.44904
1.41738
1.38648
1.3563
1.32682
1.29802
1.26987
1.24234
1.21543
1.18909
1.16332
1.13809
1.1134
1.08921
1.06552
1.0423
1.01955
0.997257
0.975399
0.953968
0.932955
0.912349
0.892142
0.872325
0.852893
0.833839
0.815158
0.796846
0.7789
0.761318
0.744101
0.727249
0.710767
0.694659
0.678932
0.663597
0.648666
0.634153
0.620076
0.606449
0.593285
0.58059
0.568332
0.556539
0.180443
0.211058
0.268519
0.321054
0.368652
0.413057
0.455554
0.496967
0.537834
0.578531
0.619349
0.660533
0.702307
0.744881
0.788456
0.83322
0.879352
0.927014
0.976351
1.02749
1.08053
1.13557
1.19264
1.2518
1.31305
1.37637
1.44173
1.50907
1.57829
1.6493
1.72197
1.79617
1.87171
1.94844
2.02615
2.10465
2.18371
2.2631
2.34257
2.42188
2.50075
2.5789
2.65604
2.73187
2.80608
2.87835
2.94833
3.0157
3.08012
3.14124
3.19876
3.25237
3.30184
3.34703
3.38795
3.42483
3.45831
3.48934
3.52062
3.55498
3.59627
3.64945
3.72053
3.81579
3.94047
4.09684
4.28267
4.49095
4.71115
4.93133
5.14021
5.32847
5.48938
5.61887
5.71515
5.77836
5.81002
5.81262
5.78922
5.7432
5.67793
5.59672