/*--------------------------------*- C++ -*----------------------------------*\
| =========                 |                                                 |
| \\      /  F ield         | OpenFOAM: The Open Source CFD Toolbox           |
|  \\    /   O peration     | Version:  2.2.x                                 |
|   \\  /    A nd           | Web:      www.OpenFOAM.org                      |
|    \\/     M anipulation  |                                                 |
\*---------------------------------------------------------------------------*/
FoamFile
{
    version     2.0;
    format      ascii;
    class       volScalarField;
    location    "150";
    object      nut;
}
// * * * * * * * * * * * * * * * * * * * * * * * * * * * * * * * * * * * * * //

dimensions      [0 2 -1 0 0 0 0];

internalField   nonuniform List<scalar> 
12225
(
3.09427e-05
3.71939e-05
4.09454e-05
4.31414e-05
4.43758e-05
4.50132e-05
4.528e-05
4.53186e-05
4.52186e-05
4.50363e-05
4.48071e-05
4.45529e-05
4.42873e-05
4.40184e-05
4.37509e-05
4.34863e-05
4.32209e-05
4.29704e-05
0.000116589
6.93415e-05
5.1577e-05
4.23866e-05
3.71259e-05
3.38934e-05
3.18015e-05
3.0403e-05
2.94538e-05
2.88114e-05
2.83877e-05
2.81253e-05
2.79855e-05
2.79408e-05
2.79711e-05
2.80602e-05
2.81948e-05
2.83345e-05
0.000365024
0.000223091
0.000162261
0.000127678
0.000105764
9.0928e-05
8.0343e-05
7.24697e-05
6.64177e-05
6.16405e-05
5.77867e-05
5.462e-05
5.1976e-05
4.97352e-05
4.78055e-05
4.61068e-05
4.4551e-05
4.30656e-05
0.000644535
0.000478872
0.000378357
0.000312966
0.000267724
0.000235004
0.000210445
0.000191427
0.000176309
0.000164017
0.000153825
0.000145222
0.000137838
0.000131395
0.000125673
0.000120484
0.000115649
0.000111069
0.000789229
0.000696636
0.00061157
0.000541481
0.000485256
0.000440245
0.000403903
0.000374191
0.000349571
0.000328898
0.000311315
0.000296174
0.000282975
0.000271321
0.00026089
0.000251406
0.000242628
0.000234458
0.000836131
0.000801958
0.000758682
0.000713469
0.000670291
0.000630901
0.000595762
0.000564719
0.00053737
0.000513246
0.000491893
0.000472897
0.000455894
0.000440564
0.000426623
0.000413821
0.000401935
0.000390932
0.000848362
0.000838481
0.000822727
0.000802657
0.000780077
0.000756512
0.000733041
0.00071034
0.000688783
0.000668541
0.000649658
0.000632098
0.00061578
0.000600597
0.000586427
0.000573142
0.000560626
0.000548949
0.000850836
0.000847512
0.000841559
0.000832974
0.000822164
0.000809712
0.000796206
0.000782149
0.000767931
0.000753836
0.000740056
0.000726709
0.000713859
0.00070153
0.000689716
0.000678389
0.000667522
0.00065726
0.000851477
0.000850219
0.000847976
0.000844516
0.000839791
0.000833894
0.000827009
0.000819354
0.000811142
0.000802566
0.000793789
0.000784937
0.000776105
0.000767362
0.000758752
0.000750301
0.000742031
0.000734097
0.000851643
0.000851029
0.00085014
0.000848838
0.000847026
0.000844657
0.000841731
0.000838285
0.000834379
0.000830084
0.000825475
0.000820622
0.000815587
0.000810423
0.000805174
0.000799876
0.000794563
0.000789362
0.000851675
0.00085122
0.000850719
0.000850123
0.000849385
0.000848466
0.000847336
0.000845981
0.000844398
0.000842596
0.000840588
0.000838393
0.000836034
0.000833532
0.000830907
0.00082818
0.000825374
0.000822567
0.000851677
0.000851251
0.000850835
0.000850416
0.000849979
0.00084951
0.000848992
0.000848415
0.000847767
0.000847043
0.00084624
0.000845357
0.000844396
0.00084336
0.000842254
0.000841084
0.000839859
0.000838616
0.000851674
0.00085125
0.000850847
0.000850461
0.000850087
0.000849721
0.000849359
0.000848995
0.000848625
0.000848245
0.000847852
0.000847444
0.000847018
0.000846573
0.00084611
0.000845629
0.000845133
0.000844639
0.000851671
0.000851246
0.000850843
0.00085046
0.000850095
0.000849747
0.000849413
0.000849093
0.000848784
0.000848485
0.000848194
0.000847911
0.000847634
0.000847363
0.000847097
0.000846837
0.000846583
0.000846348
0.000851669
0.000851242
0.000850838
0.000850454
0.00085009
0.000849744
0.000849415
0.000849101
0.000848803
0.000848518
0.000848247
0.000847989
0.000847744
0.000847511
0.00084729
0.000847081
0.000846886
0.000846715
0.000851667
0.000851239
0.000850834
0.000850449
0.000850085
0.000849739
0.000849411
0.000849099
0.000848803
0.000848522
0.000848256
0.000848003
0.000847764
0.000847539
0.000847327
0.000847128
0.000846944
0.000846784
0.000851665
0.000851237
0.000850831
0.000850446
0.000850082
0.000849736
0.000849409
0.000849099
0.000848804
0.000848525
0.000848261
0.000848012
0.000847776
0.000847553
0.000847344
0.000847147
0.000846965
0.000846807
0.000851664
0.000851235
0.000850829
0.000850445
0.000850081
0.000849736
0.00084941
0.000849101
0.000848808
0.000848532
0.00084827
0.000848022
0.000847788
0.000847567
0.000847359
0.000847164
0.000846983
0.000846824
0.000851664
0.000851235
0.000850829
0.000850445
0.000850082
0.000849739
0.000849414
0.000849106
0.000848816
0.00084854
0.00084828
0.000848034
0.000847801
0.000847581
0.000847374
0.000847178
0.000846996
0.000846837
0.000851664
0.000851236
0.000850831
0.000850448
0.000850086
0.000849743
0.000849419
0.000849112
0.000848821
0.000848545
0.000848283
0.000848034
0.000847797
0.000847571
0.000847355
0.00084715
0.000846957
0.000846784
0.000851665
0.000851237
0.000850833
0.00085045
0.000850086
0.000849739
0.000849407
0.000849087
0.000848776
0.000848473
0.000848177
0.000847884
0.000847595
0.000847308
0.000847023
0.000846739
0.000846459
0.000846193
0.000851666
0.000851237
0.000850825
0.000850423
0.000850022
0.000849613
0.000849187
0.000848737
0.000848257
0.000847744
0.000847197
0.000846613
0.000845995
0.000845344
0.000844663
0.000843956
0.000843229
0.0008425
0.00085166
0.000851194
0.000850685
0.000850086
0.000849359
0.000848472
0.000847407
0.000846154
0.000844718
0.000843108
0.000841341
0.000839437
0.000837417
0.000835303
0.000833117
0.000830879
0.00082861
0.000826351
0.000851569
0.000850739
0.000849417
0.000847448
0.000844756
0.000841343
0.000837265
0.000832615
0.000827502
0.000822037
0.000816324
0.000810458
0.000804519
0.000798574
0.000792678
0.000786874
0.000781199
0.000775721
0.000850707
0.000847149
0.000840947
0.00083219
0.000821306
0.000808868
0.000795442
0.000781513
0.000767463
0.000753574
0.000740045
0.000727007
0.000714543
0.000702696
0.000691484
0.000680905
0.000670951
0.000661654
0.000844119
0.000825267
0.000798655
0.000767986
0.000736076
0.000704768
0.000675097
0.000647542
0.000622257
0.000599213
0.000578288
0.000559319
0.000542127
0.000526539
0.000512388
0.000499525
0.000487817
0.000477187
0.000803444
0.000727267
0.000652966
0.000588179
0.000533544
0.000487961
0.000449913
0.000417982
0.000390994
0.000368016
0.000348308
0.000331288
0.000316494
0.000303555
0.000292178
0.000282122
0.000273196
0.000265265
0.000625901
0.000466294
0.000370517
0.000306707
0.000261426
0.000228026
0.000202607
0.000182756
0.000166925
0.000154078
0.000143498
0.000134673
0.000127232
0.000120896
0.000115455
0.000110751
0.000106661
0.00010311
0.000254191
0.000158508
0.000118232
9.49228e-05
7.99348e-05
6.97372e-05
6.24953e-05
5.71808e-05
5.3181e-05
5.01098e-05
4.77136e-05
4.58194e-05
4.43062e-05
4.30873e-05
4.2099e-05
4.12943e-05
4.06379e-05
4.01095e-05
3.69327e-05
4.20257e-05
4.57639e-05
4.86748e-05
5.10832e-05
5.30503e-05
5.46359e-05
5.58975e-05
5.68875e-05
5.76527e-05
5.82334e-05
5.86639e-05
5.89728e-05
5.91839e-05
5.93169e-05
5.93879e-05
5.941e-05
5.93933e-05
8.76175e-06
2.94118e-05
3.62183e-05
4.17769e-05
4.6612e-05
5.09914e-05
5.50001e-05
5.87106e-05
6.21776e-05
6.54411e-05
6.85309e-05
7.14698e-05
7.42759e-05
7.69638e-05
7.95455e-05
8.20313e-05
8.44295e-05
8.67478e-05
8.89924e-05
9.1169e-05
9.32825e-05
9.53373e-05
9.73372e-05
9.92857e-05
0.000101186
0.000103041
0.000104852
0.000106623
0.000108355
0.000110051
0.000111711
0.000113337
0.00011493
0.000116492
0.000118024
0.000119525
0.000120998
0.000122443
0.000123859
0.000125248
0.00012661
0.000127944
0.00012925
0.000130529
0.00013178
0.000133002
0.000134195
0.000135359
0.000136492
0.000137595
0.000138665
0.000139702
0.000140706
0.000141677
0.000142612
0.000143514
0.000144384
0.000145221
0.000146049
0.000146802
0.000147473
0.000148053
0.000148534
0.000148908
0.000149165
0.000149297
0.000149294
0.00014915
0.000148856
0.000148407
0.000147798
0.000147027
0.000146094
0.000145001
0.000143751
0.000142351
0.000140811
0.00013914
0.00013735
0.000135456
0.00013347
0.000131407
0.000129283
0.00012711
0.000124903
0.000122674
0.000120435
0.000118196
0.000115968
0.000113757
0.000111572
0.000109417
0.000107299
0.00010522
0.000103183
0.000101191
9.92448e-05
9.73451e-05
9.54927e-05
9.36854e-05
9.1924e-05
9.02097e-05
8.85363e-05
8.69032e-05
8.53181e-05
8.37666e-05
8.22499e-05
8.08021e-05
7.94368e-05
7.81784e-05
7.71392e-05
7.61847e-05
7.52753e-05
7.44011e-05
7.35577e-05
7.27428e-05
7.19542e-05
7.11896e-05
7.04468e-05
6.97243e-05
6.90208e-05
6.83354e-05
6.76672e-05
6.70154e-05
6.63791e-05
6.57574e-05
6.51495e-05
6.45546e-05
6.39721e-05
6.34016e-05
6.28422e-05
6.22937e-05
6.17557e-05
6.12279e-05
6.071e-05
6.02015e-05
5.97021e-05
5.92116e-05
5.87298e-05
5.82563e-05
5.77911e-05
5.7334e-05
5.68848e-05
5.64433e-05
5.60093e-05
5.55828e-05
5.51637e-05
5.47518e-05
5.4347e-05
5.39492e-05
5.35584e-05
5.31745e-05
5.27976e-05
5.24274e-05
5.20639e-05
5.17071e-05
5.13568e-05
5.10133e-05
5.06764e-05
5.03461e-05
5.00222e-05
4.97048e-05
4.93939e-05
4.90894e-05
4.87911e-05
4.84982e-05
4.82041e-05
4.78934e-05
4.76191e-05
4.73673e-05
4.71297e-05
4.69015e-05
4.66786e-05
4.64576e-05
4.62346e-05
4.60041e-05
4.57657e-05
4.55149e-05
4.52344e-05
4.48169e-05
1.59047e-05
7.19783e-05
9.74685e-05
0.000112385
0.000125395
0.000137934
0.000150253
0.00016245
0.000174605
0.000186777
0.00019901
0.000211332
0.000223763
0.000236309
0.000248976
0.00026176
0.000274657
0.000287659
0.000300757
0.000313942
0.000327204
0.000340535
0.000353927
0.000367376
0.000380877
0.000394428
0.000408029
0.000421682
0.000435392
0.000449164
0.000463008
0.000476933
0.000490953
0.00050508
0.000519331
0.000533723
0.000548275
0.000563007
0.000577939
0.000593093
0.00060849
0.000624154
0.000640105
0.000656364
0.00067295
0.000689878
0.000707162
0.00072481
0.000742821
0.00076119
0.000779897
0.00079891
0.000818182
0.000837642
0.000857195
0.000876717
0.000896053
0.000915012
0.000933088
0.00095104
0.000968853
0.00098641
0.00100357
0.00102016
0.00103601
0.00105093
0.00106472
0.0010772
0.00108816
0.00109745
0.00110492
0.00111044
0.00111393
0.00111536
0.00111472
0.00111206
0.00110746
0.00110101
0.00109287
0.0010832
0.00107217
0.00105996
0.00104675
0.00103274
0.00101808
0.00100295
0.000987489
0.00097183
0.00095609
0.00094037
0.000924756
0.000909321
0.000894118
0.000879191
0.000864578
0.000850302
0.000836368
0.000822792
0.000809586
0.000796727
0.000784203
0.00077205
0.000760221
0.000748667
0.000737527
0.000726711
0.000716094
0.000705675
0.000695336
0.000684649
0.000673396
0.000662036
0.0006508
0.000639782
0.000629012
0.000618493
0.00060822
0.000598183
0.000588373
0.00057878
0.000569393
0.000560201
0.000551195
0.000542365
0.0005337
0.000525194
0.00051684
0.000508631
0.00050056
0.000492623
0.000484814
0.000477129
0.000469562
0.000462111
0.000454769
0.000447536
0.000440407
0.000433379
0.00042645
0.000419617
0.000412878
0.00040623
0.000399671
0.000393198
0.000386811
0.000380508
0.000374287
0.000368146
0.000362084
0.000356101
0.000350195
0.000344364
0.000338608
0.000332924
0.000327313
0.000321774
0.000316307
0.000310911
0.000305584
0.000300326
0.000295137
0.000290016
0.000284964
0.000279978
0.000275058
0.000270202
0.0002654
0.000260615
0.000255853
0.00025112
0.00024642
0.000241757
0.000237126
0.000232524
0.000227933
0.000223321
0.000218313
0.000212718
0.000205818
0.000195327
1.95254e-05
0.000103979
0.000152552
0.000180255
0.000203154
0.000225378
0.000247852
0.000270783
0.000294235
0.000318231
0.000342775
0.000367856
0.00039345
0.000419527
0.000446049
0.000472975
0.00050026
0.000527861
0.000555734
0.000583839
0.000612136
0.000640591
0.000669172
0.000697854
0.000726614
0.000755433
0.000784298
0.000813199
0.000842132
0.000871095
0.000900088
0.000929117
0.000958192
0.000987321
0.00101652
0.0010458
0.00107519
0.00110469
0.00113434
0.00116414
0.00119413
0.00122433
0.00125474
0.0012854
0.0013163
0.00134748
0.00137892
0.00141064
0.00144261
0.00147482
0.00150723
0.0015398
0.00157246
0.00160512
0.00163767
0.00166996
0.00170182
0.00173308
0.00176371
0.00179397
0.00182373
0.0018528
0.0018809
0.00190775
0.00193304
0.00195645
0.00197763
0.00199627
0.00201205
0.0020247
0.00203401
0.00203978
0.00204194
0.00204043
0.00203531
0.00202667
0.0020147
0.00199961
0.00198167
0.00196118
0.00193846
0.00191384
0.00188763
0.00186015
0.00183169
0.00180253
0.00177291
0.00174307
0.00171319
0.00168343
0.00165393
0.00162482
0.00159617
0.00156805
0.00154053
0.00151364
0.00148738
0.00146177
0.00143684
0.00141256
0.00138888
0.00136588
0.00134354
0.00132173
0.00130064
0.00128028
0.00126057
0.00124137
0.00122256
0.00120395
0.00118538
0.00116696
0.00114882
0.00113103
0.00111361
0.00109657
0.0010799
0.0010636
0.00104764
0.00103201
0.00101669
0.00100167
0.000986927
0.000972457
0.000958242
0.000944269
0.000930528
0.000917008
0.000903699
0.000890593
0.000877681
0.000864955
0.000852409
0.000840037
0.000827833
0.000815792
0.000803908
0.000792178
0.000780595
0.000769156
0.000757857
0.000746693
0.000735662
0.000724761
0.000713987
0.000703337
0.000692808
0.000682397
0.000672103
0.000661924
0.000651857
0.0006419
0.000632052
0.000622311
0.000612677
0.000603146
0.00059372
0.000584396
0.000575173
0.000566051
0.000557029
0.000548106
0.000539281
0.000530552
0.000521918
0.000513374
0.000504911
0.000496514
0.00048817
0.000479875
0.000471624
0.000463412
0.00045523
0.000447062
0.000438882
0.000430638
0.000422001
0.000412466
0.000401095
0.000385657
2.22722e-05
0.000126791
0.000198403
0.000240327
0.000273732
0.000305552
0.000337722
0.000370739
0.000404708
0.000439628
0.000475456
0.000512132
0.000549585
0.000587737
0.000626509
0.000665819
0.000705587
0.000745736
0.000786193
0.000826892
0.000867768
0.000908767
0.000949836
0.000990931
0.00103201
0.00107305
0.00111401
0.00115487
0.00119561
0.00123621
0.00127667
0.00131697
0.00135711
0.00139709
0.0014369
0.00147654
0.00151603
0.00155536
0.00159454
0.00163359
0.0016725
0.00171128
0.00174995
0.00178852
0.00182699
0.00186537
0.00190367
0.00194188
0.00198001
0.00201804
0.00205595
0.00209373
0.00213132
0.00216869
0.00220575
0.00224242
0.00227857
0.00231407
0.00234904
0.00238349
0.00241724
0.00245005
0.00248163
0.00251165
0.00253974
0.00256552
0.00258858
0.00260854
0.00262501
0.00263768
0.00264625
0.00265053
0.0026504
0.00264581
0.00263683
0.00262361
0.00260634
0.00258533
0.00256091
0.00253345
0.00250334
0.00247098
0.00243677
0.00240108
0.00236429
0.00232672
0.00228865
0.00225038
0.00221211
0.00217404
0.00213633
0.00209912
0.00206252
0.00202658
0.00199138
0.00195697
0.00192335
0.0018905
0.00185849
0.00182731
0.00179682
0.00176719
0.00173847
0.00171061
0.00168363
0.00165752
0.00163222
0.00160765
0.00158373
0.00156033
0.00153737
0.00151482
0.0014927
0.00147104
0.00144983
0.00142908
0.00140876
0.00138887
0.00136939
0.0013503
0.00133158
0.0013132
0.00129516
0.00127744
0.00126002
0.00124288
0.00122602
0.00120942
0.00119307
0.00117697
0.00116109
0.00114544
0.00113
0.00111476
0.00109972
0.00108488
0.00107023
0.00105575
0.00104145
0.00102732
0.00101336
0.000999559
0.000985914
0.000972423
0.000959082
0.000945887
0.000932835
0.000919922
0.000907147
0.000894505
0.000881995
0.000869615
0.000857362
0.000845234
0.000833229
0.000821346
0.000809584
0.00079794
0.000786415
0.000775006
0.000763713
0.000752536
0.000741472
0.000730521
0.000719679
0.000708943
0.000698308
0.000687765
0.000677305
0.000666922
0.000656608
0.000646357
0.000636159
0.000626001
0.000615862
0.000605707
0.000595406
0.000584275
0.000571731
0.000556548
2.43725e-05
0.000141996
0.000234569
0.00029076
0.000334551
0.000375335
0.00041615
0.000457896
0.000500793
0.00054485
0.00059
0.000636149
0.000683191
0.000731015
0.000779512
0.000828573
0.000878096
0.000927982
0.000978139
0.00102848
0.00107893
0.00112942
0.00117987
0.00123024
0.00128046
0.00133049
0.00138028
0.0014298
0.00147901
0.00152789
0.00157639
0.00162451
0.00167221
0.00171949
0.00176632
0.0018127
0.0018586
0.00190403
0.00194898
0.00199344
0.00203741
0.00208089
0.00212389
0.0021664
0.00220844
0.00225001
0.00229113
0.0023318
0.00237206
0.0024119
0.00245134
0.00249039
0.00252906
0.00256734
0.0026052
0.00264263
0.00267955
0.00271587
0.00275179
0.00278724
0.00282208
0.00285607
0.00288893
0.00292029
0.00294977
0.00297691
0.00300127
0.00302237
0.00303976
0.00305301
0.00306178
0.00306579
0.00306487
0.00305895
0.00304806
0.00303237
0.00301209
0.00298756
0.00295916
0.00292731
0.00289246
0.00285508
0.00281561
0.0027745
0.00273216
0.00268896
0.00264523
0.00260129
0.00255738
0.00251371
0.00247048
0.00242781
0.00238584
0.00234464
0.00230425
0.00226476
0.00222618
0.0021884
0.00215159
0.00211582
0.00208104
0.00204729
0.00201459
0.0019829
0.00195221
0.00192247
0.00189364
0.00186567
0.00183848
0.00181201
0.00178616
0.00176089
0.00173618
0.001712
0.00168834
0.00166519
0.00164252
0.00162032
0.00159857
0.00157725
0.00155633
0.00153579
0.00151562
0.0014958
0.00147631
0.00145713
0.00143826
0.00141968
0.00140137
0.00138333
0.00136555
0.00134801
0.00133071
0.00131364
0.00129678
0.00128015
0.00126372
0.00124749
0.00123146
0.00121562
0.00119996
0.00118448
0.00116918
0.00115405
0.00113909
0.00112428
0.00110964
0.00109515
0.00108082
0.00106663
0.00105259
0.0010387
0.00102494
0.00101133
0.000997848
0.000984504
0.000971294
0.000958215
0.000945267
0.000932449
0.00091976
0.000907199
0.000894765
0.000882456
0.000870271
0.000858208
0.000846262
0.00083443
0.000822707
0.00081109
0.000799575
0.000788158
0.000776836
0.000765605
0.000754461
0.000743399
0.000732371
0.000720904
0.000708618
0.000695026
2.59593e-05
0.00015087
0.000261172
0.000330729
0.000384199
0.000432952
0.000481103
0.000530017
0.000580089
0.000631374
0.000683808
0.000737284
0.000791679
0.000846866
0.000902719
0.000959117
0.00101594
0.00107309
0.00113046
0.00118794
0.00124546
0.00130293
0.00136027
0.00141741
0.00147429
0.00153084
0.00158701
0.00164275
0.00169802
0.00175276
0.00180694
0.00186053
0.00191348
0.00196577
0.00201738
0.00206827
0.00211844
0.00216784
0.00221648
0.00226434
0.0023114
0.00235767
0.00240314
0.00244781
0.00249169
0.00253479
0.00257713
0.00261873
0.00265962
0.00269984
0.00273943
0.00277843
0.00281688
0.00285482
0.0028923
0.00292933
0.00296592
0.00300205
0.00303794
0.00307361
0.00310893
0.00314373
0.00317771
0.00321054
0.00324177
0.00327092
0.00329745
0.00332078
0.00334035
0.00335562
0.00336612
0.00337146
0.00337139
0.00336577
0.0033546
0.00333803
0.00331628
0.00328972
0.00325876
0.00322389
0.00318562
0.00314448
0.00310097
0.0030556
0.00300884
0.0029611
0.00291277
0.00286419
0.00281564
0.00276737
0.00271955
0.00267236
0.00262597
0.00258041
0.00253566
0.00249198
0.00244943
0.00240798
0.00236771
0.00232865
0.00229077
0.00225406
0.00221851
0.00218407
0.00215071
0.00211838
0.00208704
0.00205663
0.0020271
0.00199838
0.00197039
0.00194309
0.00191643
0.00189037
0.00186488
0.00183994
0.00181553
0.00179162
0.00176819
0.00174522
0.00172267
0.00170054
0.0016788
0.00165744
0.00163643
0.00161576
0.00159541
0.00157538
0.00155565
0.0015362
0.00151703
0.00149812
0.00147947
0.00146107
0.00144291
0.00142498
0.00140728
0.0013898
0.00137253
0.00135546
0.0013386
0.00132193
0.00130546
0.00128917
0.00127306
0.00125713
0.00124137
0.00122579
0.00121037
0.00119511
0.00118001
0.00116507
0.00115028
0.00113564
0.00112116
0.00110682
0.00109262
0.00107857
0.00106467
0.0010509
0.00103728
0.0010238
0.00101046
0.000997252
0.000984188
0.000971261
0.000958469
0.000945812
0.000933289
0.0009209
0.000908646
0.00089653
0.000884557
0.000872735
0.00086108
0.000849614
0.000838344
0.000827009
0.000815346
0.000803238
2.71315e-05
0.000154554
0.000278791
0.000360247
0.000422356
0.000477917
0.000532033
0.000586563
0.000642119
0.000698838
0.000756685
0.000815559
0.000875335
0.000935882
0.00099707
0.00105878
0.00112088
0.00118327
0.00124583
0.00130847
0.0013711
0.00143361
0.00149594
0.00155799
0.0016197
0.00168099
0.00174181
0.00180208
0.00186176
0.00192078
0.00197911
0.00203668
0.00209347
0.00214944
0.00220454
0.00225874
0.00231202
0.00236434
0.00241569
0.00246604
0.00251538
0.0025637
0.00261098
0.00265722
0.00270244
0.00274663
0.00278982
0.00283204
0.00287331
0.00291369
0.00295323
0.002992
0.00303007
0.00306752
0.00310443
0.00314088
0.00317695
0.00321266
0.00324834
0.00328407
0.00331984
0.00335551
0.00339087
0.00342556
0.00345915
0.00349108
0.00352073
0.0035474
0.00357039
0.003589
0.00360261
0.00361069
0.00361284
0.00360885
0.00359866
0.00358238
0.00356024
0.00353262
0.00349999
0.00346289
0.00342192
0.00337765
0.00333067
0.00328156
0.00323084
0.003179
0.00312645
0.00307356
0.00302071
0.00296816
0.00291601
0.00286453
0.00281401
0.00276457
0.00271625
0.0026692
0.00262347
0.00257907
0.002536
0.00249428
0.00245387
0.00241474
0.00237686
0.00234018
0.00230466
0.00227024
0.00223688
0.0022045
0.00217307
0.00214251
0.00211276
0.00208377
0.00205548
0.00202785
0.00200085
0.00197443
0.00194857
0.00192325
0.00189844
0.0018741
0.00185023
0.0018268
0.00180378
0.00178115
0.00175891
0.00173703
0.00171549
0.00169429
0.0016734
0.00165282
0.00163254
0.00161254
0.00159281
0.00157336
0.00155416
0.0015352
0.0015165
0.00149802
0.00147978
0.00146175
0.00144395
0.00142635
0.00140896
0.00139177
0.00137478
0.00135798
0.00134136
0.00132493
0.00130868
0.0012926
0.00127669
0.00126095
0.00124538
0.00122998
0.00121473
0.00119965
0.00118472
0.00116994
0.00115533
0.00114087
0.00112656
0.0011124
0.0010984
0.00108455
0.00107085
0.00105731
0.00104392
0.00103068
0.00101761
0.00100469
0.00099194
0.000979366
0.000966983
0.000954809
0.000942875
0.000931226
0.000919905
0.000908825
0.000897721
0.000886664
2.79626e-05
0.000154085
0.000288299
0.000379867
0.000449422
0.000510598
0.000569354
0.00062805
0.000687541
0.000748082
0.000809687
0.000872279
0.000935743
0.000999955
0.00106479
0.00113013
0.00119585
0.00126185
0.00132802
0.00139426
0.00146046
0.00152655
0.00159242
0.00165799
0.00172319
0.00178794
0.00185216
0.00191579
0.00197876
0.00204101
0.00210248
0.00216313
0.00222289
0.00228173
0.00233959
0.00239645
0.00245226
0.00250699
0.00256061
0.00261309
0.00266441
0.00271454
0.00276348
0.00281122
0.00285774
0.00290306
0.00294719
0.00299015
0.00303198
0.00307272
0.00311243
0.00315119
0.00318908
0.00322621
0.0032627
0.00329868
0.00333426
0.00336953
0.00340491
0.00344061
0.00347674
0.00351328
0.00355007
0.00358683
0.00362311
0.00365834
0.00369181
0.00372268
0.00375009
0.00377315
0.00379104
0.00380303
0.00380859
0.00380736
0.0037992
0.00378416
0.0037625
0.0037346
0.00370098
0.00366225
0.00361907
0.00357212
0.00352205
0.00346947
0.00341505
0.00335936
0.00330279
0.00324568
0.00318865
0.00313206
0.00307612
0.00302109
0.00296718
0.00291453
0.00286322
0.00281332
0.00276489
0.00271792
0.00267241
0.00262836
0.00258572
0.00254446
0.00250453
0.00246587
0.00242845
0.00239219
0.00235704
0.00232295
0.00228984
0.00225767
0.00222636
0.00219587
0.00216614
0.00213711
0.00210875
0.00208102
0.00205389
0.00202732
0.00200129
0.00197578
0.00195074
0.00192617
0.00190204
0.00187833
0.00185502
0.0018321
0.00180954
0.00178733
0.00176547
0.00174393
0.0017227
0.00170178
0.00168115
0.0016608
0.00164073
0.00162092
0.00160138
0.00158208
0.00156302
0.00154421
0.00152562
0.00150726
0.00148912
0.00147119
0.00145347
0.00143595
0.00141864
0.00140152
0.00138458
0.00136784
0.00135128
0.0013349
0.0013187
0.00130267
0.00128682
0.00127113
0.00125561
0.00124027
0.00122508
0.00121007
0.00119521
0.00118053
0.00116601
0.00115165
0.00113746
0.00112344
0.00110959
0.00109591
0.00108241
0.0010691
0.00105598
0.00104308
0.0010304
0.00101798
0.00100587
0.000994109
0.000982777
0.000971893
0.000961167
0.000950747
2.85062e-05
0.000150392
0.000290727
0.000390461
0.00046624
0.0005319
0.000594089
0.000655647
0.000717702
0.000780648
0.000844574
0.000909437
0.000975148
0.0010416
0.00110867
0.00117626
0.00124424
0.00131253
0.00138101
0.00144959
0.00151817
0.00158665
0.00165494
0.00172297
0.00179063
0.00185786
0.00192457
0.00199068
0.00205613
0.00212084
0.00218476
0.00224782
0.00230996
0.00237114
0.00243129
0.00249038
0.00254835
0.00260518
0.00266081
0.00271521
0.00276836
0.00282022
0.00287077
0.00291999
0.00296787
0.00301441
0.00305961
0.00310348
0.00314604
0.00318735
0.00322746
0.00326644
0.00330438
0.00334141
0.00337766
0.00341328
0.00344844
0.00348328
0.00351827
0.00355379
0.00359008
0.00362728
0.00366536
0.00370412
0.00374318
0.00378196
0.00381966
0.00385535
0.00388797
0.0039164
0.00393958
0.00395657
0.00396661
0.00396918
0.00396402
0.00395113
0.00393075
0.0039033
0.00386932
0.00382947
0.00378454
0.00373533
0.00368255
0.00362672
0.00356882
0.00350956
0.00344947
0.00338901
0.0033287
0.00326891
0.00320992
0.00315195
0.00309522
0.00303985
0.00298594
0.00293356
0.00288273
0.00283347
0.00278577
0.00273961
0.00269494
0.00265173
0.00260992
0.00256945
0.00253028
0.00249233
0.00245555
0.00241987
0.00238523
0.00235158
0.00231884
0.00228697
0.0022559
0.00222559
0.00219599
0.00216706
0.00213877
0.00211107
0.00208394
0.00205735
0.00203127
0.00200569
0.00198057
0.00195589
0.00193164
0.0019078
0.00188435
0.00186127
0.00183855
0.00181618
0.00179414
0.00177242
0.00175101
0.0017299
0.00170909
0.00168855
0.00166829
0.0016483
0.00162856
0.00160908
0.00158984
0.00157084
0.00155207
0.00153352
0.0015152
0.00149709
0.0014792
0.0014615
0.00144401
0.00142672
0.00140962
0.00139271
0.00137599
0.00135945
0.0013431
0.00132692
0.00131092
0.0012951
0.00127946
0.00126399
0.00124869
0.00123357
0.00121863
0.00120386
0.00118927
0.00117486
0.00116064
0.00114661
0.00113277
0.00111914
0.00110573
0.00109255
0.00107965
0.00106704
0.00105477
0.00104292
0.00103154
0.00102071
0.0010102
0.0010001
2.8801e-05
0.000144289
0.000287162
0.000393067
0.000473889
0.00054303
0.000607607
0.000670907
0.000734344
0.000798478
0.000863488
0.000929386
0.000996114
0.00106359
0.00113171
0.00120037
0.00126949
0.00133895
0.00140867
0.00147855
0.00154849
0.0016184
0.0016882
0.00175778
0.00182707
0.00189597
0.0019644
0.00203228
0.00209954
0.00216608
0.00223185
0.00229678
0.0023608
0.00242385
0.00248587
0.00254681
0.00260661
0.00266523
0.00272261
0.00277872
0.00283351
0.00288693
0.00293897
0.00298959
0.00303877
0.00308649
0.00313274
0.00317753
0.00322087
0.0032628
0.00330336
0.00334264
0.00338072
0.00341772
0.00345379
0.00348911
0.00352387
0.00355826
0.00359275
0.00362788
0.00366408
0.00370164
0.00374072
0.00378126
0.00382298
0.00386535
0.00390755
0.00394852
0.003987
0.00402163
0.00405106
0.00407407
0.00408964
0.00409705
0.00409586
0.00408599
0.00406769
0.00404142
0.00400775
0.00396724
0.00392101
0.00387002
0.00381515
0.00375716
0.00369693
0.0036352
0.00357258
0.00350961
0.00344678
0.00338447
0.003323
0.0032626
0.00320349
0.00314581
0.00308965
0.00303507
0.00298213
0.00293081
0.00288112
0.00283304
0.00278651
0.0027415
0.00269795
0.0026558
0.002615
0.00257547
0.00253716
0.0025
0.00246393
0.00242889
0.00239482
0.00236166
0.00232934
0.00229783
0.00226708
0.00223703
0.00220765
0.00217891
0.00215077
0.00212321
0.00209619
0.00206968
0.00204367
0.00201814
0.00199305
0.00196839
0.00194415
0.0019203
0.00189684
0.00187374
0.001851
0.0018286
0.00180653
0.00178478
0.00176333
0.00174219
0.00172133
0.00170076
0.00168046
0.00166042
0.00164064
0.00162112
0.00160183
0.00158279
0.00156397
0.00154539
0.00152702
0.00150887
0.00149093
0.00147319
0.00145566
0.00143833
0.00142119
0.00140424
0.00138748
0.00137091
0.00135453
0.00133833
0.00132231
0.00130648
0.00129083
0.00127536
0.00126008
0.00124498
0.00123007
0.00121535
0.00120082
0.0011865
0.00117239
0.00115851
0.00114486
0.00113147
0.00111837
0.00110559
0.00109319
0.00108123
0.00106978
0.0010589
0.00104847
0.00103846
2.88733e-05
0.000136441
0.000278614
0.000388724
0.000473514
0.000545308
0.000611439
0.000675572
0.000739416
0.000803718
0.000868769
0.000934651
0.00100135
0.00106881
0.00113695
0.00120569
0.00127495
0.00134463
0.00141465
0.00148492
0.00155534
0.00162584
0.00169631
0.00176666
0.00183681
0.00190666
0.00197611
0.00204509
0.0021135
0.00218127
0.00224832
0.00231457
0.00237995
0.00244439
0.00250782
0.00257018
0.00263141
0.00269145
0.00275023
0.00280772
0.00286385
0.00291858
0.00297186
0.00302365
0.00307391
0.00312262
0.00316975
0.00321529
0.00325926
0.00330166
0.00334255
0.00338198
0.00342006
0.0034569
0.00349267
0.00352756
0.00356179
0.00359558
0.00362939
0.00366389
0.00369969
0.00373728
0.003777
0.00381899
0.00386316
0.00390908
0.00395595
0.00400262
0.00404762
0.00408929
0.00412594
0.00415602
0.00417822
0.00419155
0.00419534
0.00418933
0.00417387
0.00414954
0.00411705
0.00407722
0.00403109
0.00397969
0.00392399
0.00386492
0.00380335
0.00374005
0.00367572
0.00361095
0.00354622
0.00348197
0.00341853
0.00335616
0.00329508
0.00323544
0.00317735
0.00312088
0.00306607
0.00301294
0.00296147
0.00291164
0.00286342
0.00281675
0.0027716
0.00272789
0.00268556
0.00264456
0.00260482
0.00256628
0.00252887
0.00249252
0.00245719
0.00242281
0.00238933
0.00235669
0.00232485
0.00229376
0.00226338
0.00223367
0.0022046
0.00217614
0.00214825
0.00212092
0.00209411
0.0020678
0.00204196
0.00201659
0.00199166
0.00196714
0.00194304
0.00191932
0.00189598
0.00187301
0.00185038
0.00182809
0.00180613
0.00178449
0.00176315
0.00174211
0.00172136
0.00170088
0.00168068
0.00166075
0.00164106
0.00162163
0.00160244
0.00158349
0.00156476
0.00154627
0.00152799
0.00150992
0.00149206
0.00147441
0.00145696
0.00143971
0.00142266
0.00140579
0.00138912
0.00137264
0.00135635
0.00134024
0.00132433
0.0013086
0.00129306
0.00127771
0.00126256
0.00124761
0.00123286
0.00121832
0.001204
0.00118992
0.00117609
0.00116253
0.00114928
0.00113637
0.00112385
0.00111179
0.00110024
0.00108926
0.00107879
0.00106873
2.87615e-05
0.000126279
0.000264987
0.000377892
0.000465979
0.000539947
0.000607104
0.000671438
0.000734958
0.000798624
0.000862867
0.000927855
0.000993631
0.00106018
0.00112745
0.00119537
0.00126389
0.00133292
0.00140238
0.0014722
0.00154228
0.00161254
0.0016829
0.00175325
0.00182351
0.00189357
0.00196333
0.00203271
0.00210162
0.00216996
0.00223766
0.00230463
0.00237079
0.00243606
0.00250036
0.00256363
0.00262579
0.00268678
0.00274653
0.00280497
0.00286205
0.00291769