/*--------------------------------*- C++ -*----------------------------------*\
| =========                 |                                                 |
| \\      /  F ield         | OpenFOAM: The Open Source CFD Toolbox           |
|  \\    /   O peration     | Version:  2.2.x                                 |
|   \\  /    A nd           | Web:      www.OpenFOAM.org                      |
|    \\/     M anipulation  |                                                 |
\*---------------------------------------------------------------------------*/
FoamFile
{
    version     2.0;
    format      ascii;
    class       volScalarField;
    location    "150";
    object      p;
}
// * * * * * * * * * * * * * * * * * * * * * * * * * * * * * * * * * * * * * //

dimensions      [0 2 -2 0 0 0 0];

internalField   nonuniform List<scalar> 
12225
(
0.275842
-2.42549
-3.26518
-3.49227
-3.63971
-3.76
-3.84828
-3.91214
-3.95945
-3.99371
-4.01589
-4.02603
-4.0234
-4.00643
-3.97218
-3.91502
-3.82367
-3.60442
-3.51274
-3.86419
-3.96702
-3.90921
-3.89956
-3.92758
-3.96047
-3.98956
-4.01415
-4.03315
-4.04489
-4.04779
-4.04017
-4.01988
-3.98385
-3.92774
-3.84909
-3.78514
-3.36018
-3.20184
-3.39569
-3.51807
-3.62504
-3.73002
-3.81737
-3.88518
-3.93737
-3.97635
-4.0029
-4.0171
-4.01849
-4.00594
-3.97766
-3.9316
-3.86843
-3.80711
-3.27626
-3.26185
-3.52642
-3.68249
-3.77802
-3.85864
-3.92312
-3.9716
-4.00784
-4.03404
-4.05065
-4.05742
-4.05368
-4.03838
-4.01024
-3.96848
-3.91484
-3.86154
-3.3136
-3.35937
-3.5637
-3.68819
-3.76484
-3.83392
-3.89424
-3.94305
-3.98173
-4.01136
-4.03198
-4.0432
-4.04449
-4.03517
-4.01468
-3.9832
-3.94283
-3.90091
-3.3892
-3.43647
-3.58901
-3.70064
-3.77773
-3.84696
-3.90792
-3.95783
-3.99752
-4.02807
-4.04974
-4.06248
-4.0661
-4.06042
-4.04553
-4.02226
-3.99282
-3.96239
-3.45687
-3.49586
-3.61514
-3.71737
-3.79325
-3.85981
-3.91833
-3.96697
-4.00627
-4.03715
-4.05997
-4.07483
-4.08179
-4.08102
-4.07303
-4.059
-4.04111
-4.02308
-3.51075
-3.54462
-3.64363
-3.73645
-3.8092
-3.873
-3.92955
-3.97748
-4.01704
-4.04888
-4.0734
-4.0908
-4.10133
-4.10538
-4.10373
-4.09772
-4.08946
-4.08201
-3.55709
-3.58738
-3.67096
-3.75499
-3.82436
-3.88571
-3.94062
-3.98801
-4.02788
-4.06073
-4.08694
-4.10682
-4.12076
-4.12933
-4.13344
-4.13453
-4.13459
-4.13615
-3.60611
-3.63282
-3.70227
-3.77716
-3.84257
-3.9013
-3.95451
-4.00136
-4.04167
-4.07578
-4.10408
-4.12696
-4.14491
-4.15863
-4.16915
-4.17787
-4.18666
-4.19757
-3.65731
-3.68036
-3.73759
-3.80345
-3.86437
-3.92029
-3.97176
-4.01811
-4.05903
-4.09472
-4.12554
-4.15194
-4.17449
-4.19396
-4.21139
-4.22813
-4.24584
-4.2661
-3.71006
-3.72961
-3.77669
-3.83405
-3.89017
-3.94318
-3.99299
-4.03896
-4.08072
-4.11833
-4.15212
-4.18254
-4.21021
-4.23589
-4.26059
-4.28551
-4.31206
-4.34139
-3.76366
-3.78009
-3.81901
-3.86877
-3.92013
-3.97032
-4.01866
-4.06449
-4.10738
-4.14728
-4.18446
-4.21935
-4.25253
-4.28472
-4.31681
-4.34982
-4.38484
-4.42267
-3.81718
-3.83103
-3.86365
-3.90708
-3.95412
-4.0018
-4.04903
-4.09507
-4.13943
-4.182
-4.22295
-4.26264
-4.30155
-4.34031
-4.37964
-4.42034
-4.46319
-4.50865
-3.86936
-3.88123
-3.90927
-3.94785
-3.99142
-4.03719
-4.08385
-4.13058
-4.17685
-4.22245
-4.26745
-4.31209
-4.35674
-4.40187
-4.44801
-4.4957
-4.54547
-4.59746
-3.91827
-3.92882
-3.95387
-3.98925
-4.03056
-4.07532
-4.12217
-4.1702
-4.21885
-4.2678
-4.31701
-4.36658
-4.41673
-4.46775
-4.51997
-4.57371
-4.62924
-4.68649
-3.96089
-3.97076
-3.99434
-4.02828
-4.06887
-4.11385
-4.16187
-4.21199
-4.26355
-4.31616
-4.36965
-4.42397
-4.47919
-4.53542
-4.59281
-4.65148
-4.71149
-4.77261
-3.99002
-3.99989
-4.02358
-4.058
-4.09963
-4.14628
-4.19655
-4.24948
-4.30433
-4.36064
-4.41811
-4.47659
-4.53601
-4.59634
-4.65758
-4.71971
-4.78268
-4.84613
-4.00129
-4.01167
-4.03675
-4.07327
-4.11745
-4.16691
-4.2202
-4.27633
-4.33452
-4.39424
-4.45515
-4.517
-4.57964
-4.64296
-4.70687
-4.77129
-4.83609
-4.90086
-3.99749
-4.00868
-4.03603
-4.0759
-4.12373
-4.17673
-4.23344
-4.29287
-4.35425
-4.41702
-4.4808
-4.54533
-4.6104
-4.67585
-4.74155
-4.80737
-4.87319
-4.93853
-3.9822
-3.99422
-4.02466
-4.06916
-4.12161
-4.1787
-4.2391
-4.30195
-4.36646
-4.43208
-4.49843
-4.56526
-4.63236
-4.69953
-4.76665
-4.83358
-4.9002
-4.96604
-3.95826
-3.97065
-4.0051
-4.05575
-4.11362
-4.17501
-4.23916
-4.30536
-4.3728
-4.44095
-4.50949
-4.57819
-4.64686
-4.71531
-4.7834
-4.851
-4.91797
-4.98376
-3.92823
-3.9395
-3.97933
-4.03827
-4.10233
-4.16818
-4.23621
-4.30583
-4.37618
-4.44682
-4.51752
-4.58808
-4.65831
-4.72806
-4.7972
-4.86559
-4.93311
-4.99925
-3.89451
-3.90152
-3.94872
-4.01782
-4.08792
-4.1579
-4.22953
-4.30201
-4.37452
-4.44684
-4.51892
-4.59063
-4.66183
-4.73237
-4.8021
-4.87086
-4.93844
-5.00409
-3.85876
-3.85745
-3.91885
-4.00028
-4.07521
-4.14947
-4.22581
-4.30227
-4.37784
-4.45258
-4.52661
-4.59985
-4.67224
-4.74368
-4.81408
-4.88326
-4.95107
-5.01696
-3.81869
-3.79191
-3.88343
-3.98063
-4.05483
-4.1276
-4.2038
-4.2804
-4.35641
-4.43201
-4.50722
-4.58184
-4.65572
-4.72869
-4.80059
-4.87114
-4.93996
-5.0058
-3.81452
-3.70226
-3.84792
-3.98746
-4.08203
-4.16698
-4.24906
-4.32688
-4.40164
-4.47486
-4.54719
-4.61876
-4.68964
-4.7598
-4.82916
-4.89749
-4.96447
-5.02924
-3.91295
-3.5843
-3.66591
-3.77697
-3.8798
-3.98961
-4.09722
-4.19765
-4.29216
-4.38244
-4.46926
-4.55309
-4.63431
-4.71324
-4.79006
-4.86487
-4.93743
-5.0065
-4.21226
-4.27987
-4.31839
-4.25392
-4.23193
-4.25812
-4.30385
-4.35761
-4.41716
-4.48112
-4.54792
-4.61636
-4.68567
-4.75534
-4.82502
-4.89451
-4.9637
-5.03322
-0.51807
-2.7145
-3.51827
-3.74707
-3.89307
-4.02641
-4.14068
-4.23981
-4.33062
-4.41672
-4.49948
-4.57961
-4.65761
-4.73383
-4.80853
-4.88205
-4.95491
-5.03147
-3.81185
-3.82164
-3.84293
-3.87814
-3.93044
-4.00117
-4.09092
-4.19997
-4.3283
-4.47558
-4.64127
-4.82459
-5.02464
-5.24039
-5.47073
-5.71452
-5.97058
-6.23777
-6.51495
-6.80102
-7.09493
-7.39566
-7.70226
-8.01381
-8.32946
-8.64839
-8.96983
-9.293
-9.61719
-9.94165
-10.2657
-10.5885
-10.9093
-11.2274
-11.542
-11.8521
-12.1568
-12.4551
-12.7459
-13.028
-13.3002
-13.561
-13.8089
-14.0423
-14.2595
-14.4584
-14.6369
-14.7929
-14.924
-15.0277
-15.1012
-15.1416
-15.1457
-15.1106
-15.0334
-14.9113
-14.7405
-14.5166
-14.2357
-13.8949
-13.4919
-13.0251
-12.4936
-11.8974
-11.2379
-10.5171
-9.73856
-8.90693
-8.02798
-7.10852
-6.1562
-5.17928
-4.18638
-3.18619
-2.18722
-1.19753
-0.224519
0.72523
1.64608
2.53338
3.38352
4.19384
4.9626
5.68888
6.37252
7.01396
7.61415
8.17444
8.69649
9.18218
9.63352
10.0526
10.4415
10.8024
11.1372
11.448
11.7365
12.0046
12.2539
12.4858
12.7019
12.9034
13.0916
13.2674
13.4319
13.586
13.7308
13.8664
13.9932
14.114
14.2291
14.3366
14.4373
14.5317
14.6206
14.7044
14.7835
14.8582
14.9289
14.9959
15.0593
15.1195
15.1766
15.2308
15.2823
15.3313
15.3778
15.4222
15.4644
15.5046
15.5429
15.5794
15.6142
15.6474
15.679
15.7092
15.738
15.7655
15.7917
15.8168
15.8406
15.8634
15.885
15.9057
15.9253
15.944
15.9618
15.9787
15.9947
16.0098
16.0242
16.0377
16.0504
16.0623
16.0735
16.0839
16.0935
16.1023
16.1104
16.1178
16.1244
16.1303
16.1354
16.1398
16.1435
16.1466
16.1489
16.1507
16.1518
16.1525
16.1529
16.1532
16.1538
16.1553
16.1585
16.1646
16.1759
16.1966
16.2377
16.3047
-3.76476
-3.78877
-3.81352
-3.84485
-3.89256
-3.95953
-4.04627
-4.15291
-4.27933
-4.4251
-4.58955
-4.77184
-4.97098
-5.18587
-5.41536
-5.65826
-5.91339
-6.17958
-6.4557
-6.74065
-7.03338
-7.3329
-7.63827
-7.9486
-8.26307
-8.58087
-8.90126
-9.2235
-9.54687
-9.87068
-10.1942
-10.5167
-10.8375
-11.1559
-11.4709
-11.7818
-12.0877
-12.3875
-12.6802
-12.9647
-13.2398
-13.504
-13.7559
-13.9939
-14.2163
-14.4211
-14.6064
-14.77
-14.9096
-15.0227
-15.1066
-15.1586
-15.1754
-15.1542
-15.0926
-14.9874
-14.8348
-14.6297
-14.3684
-14.0482
-13.6665
-13.2216
-12.7123
-12.1385
-11.5007
-10.801
-10.0423
-9.22891
-8.36623
-7.46073
-6.51978
-5.55146
-4.56428
-3.56692
-2.56795
-1.57557
-0.597384
0.359768
1.28996
2.18823
3.05063
3.87421
4.65693
5.39764
6.0959
6.75195
7.3666
7.94104
8.47683
8.97574
9.43974
9.87089
10.2712
10.6429
10.9879
11.3082
11.6057
11.8822
12.1393
12.3785
12.6014
12.8093
13.0034
13.1849
13.3546
13.5138
13.6639
13.8048
13.9365
14.0603
14.1767
14.2859
14.3883
14.4846
14.5753
14.6609
14.7417
14.8181
14.8904
14.9589
15.0238
15.0854
15.1439
15.1994
15.2522
15.3023
15.3501
15.3955
15.4388
15.48
15.5193
15.5567
15.5924
15.6264
15.6589
15.6899
15.7194
15.7476
15.7746
15.8002
15.8247
15.8481
15.8703
15.8915
15.9117
15.9309
15.9492
15.9665
15.983
15.9986
16.0133
16.0272
16.0403
16.0526
16.0641
16.0748
16.0848
16.0939
16.1023
16.11
16.1169
16.123
16.1284
16.133
16.137
16.1402
16.1428
16.1447
16.1461
16.147
16.1476
16.1481
16.1489
16.1506
16.1539
16.1602
16.1716
16.1916
16.2297
16.2783
-3.73807
-3.78444
-3.83481
-3.88412
-3.94423
-4.02042
-4.11403
-4.22558
-4.35517
-4.50262
-4.66744
-4.84891
-5.0462
-5.25831
-5.48423
-5.72289
-5.97321
-6.23413
-6.50461
-6.78367
-7.07035
-7.36374
-7.66298
-7.96726
-8.27582
-8.58792
-8.90284
-9.21992
-9.53847
-9.85783
-10.1773
-10.4963
-10.814
-11.1297
-11.4427
-11.7521
-12.057
-12.3566
-12.6497
-12.9352
-13.212
-13.4788
-13.7341
-13.9764
-14.2039
-14.415
-14.6075
-14.7794
-14.9284
-15.0522
-15.148
-15.213
-15.2443
-15.239
-15.1945
-15.1079
-14.9748
-14.7904
-14.5507
-14.2526
-13.8934
-13.4709
-12.9838
-12.4313
-11.8138
-11.1327
-10.3908
-9.59199
-8.74132
-7.84514
-6.9107
-5.94609
-4.95988
-3.96089
-2.95788
-1.9593
-0.973019
-0.00617147
0.935028
1.84535
2.72057
3.55749
4.35387
5.10836
5.82037
6.49
7.11791
7.70525
8.25348
8.76432
9.23971
9.6817
10.0923
10.4736
10.8278
11.1567
11.4621
11.746
12.0101
12.2557
12.4848
12.6984
12.8975
13.0844
13.2595
13.4232
13.577
13.7212
13.8563
13.9839
14.1043
14.2174
14.3236
14.4235
14.5176
14.6063
14.69
14.769
14.8438
14.9146
14.9816
15.0452
15.1056
15.1628
15.2173
15.269
15.3182
15.365
15.4096
15.452
15.4925
15.5311
15.5678
15.6029
15.6363
15.6682
15.6986
15.7276
15.7553
15.7817
15.8069
15.831
15.8539
15.8757
15.8965
15.9163
15.9351
15.9529
15.9699
15.986
16.0011
16.0155
16.029
16.0417
16.0536
16.0647
16.0749
16.0844
16.0932
16.1011
16.1083
16.1147
16.1204
16.1253
16.1294
16.1329
16.1357
16.1378
16.1393
16.1404
16.1411
16.1417
16.1426
16.1442
16.1473
16.1531
16.1633
16.1803
16.2108
16.237
-3.79398
-3.85299
-3.91893
-3.98113
-4.05126
-4.13571
-4.23601
-4.35261
-4.48562
-4.6349
-4.80005
-4.98051
-5.17556
-5.38437
-5.60606
-5.83971
-6.0844
-6.33919
-6.60319
-6.8755
-7.1553
-7.44179
-7.73418
-8.03176
-8.33384
-8.63973
-8.9488
-9.26041
-9.57395
-9.88878
-10.2043
-10.5198
-10.8347
-11.1483
-11.4598
-11.7684
-12.0733
-12.3736
-12.6682
-12.9562
-13.2363
-13.5073
-13.7677
-14.0161
-14.2508
-14.4701
-14.672
-14.8544
-15.015
-15.1515
-15.2613
-15.3416
-15.3892
-15.4013
-15.3751
-15.3076
-15.1946
-15.0306
-14.8114
-14.5335
-14.1939
-13.79
-13.3199
-12.7825
-12.1778
-11.5068
-10.7719
-9.97697
-9.12697
-8.22832
-7.2885
-6.31589
-5.31946
-4.30845
-3.29205
-2.27915
-1.27803
-0.296141
0.660013
1.58499
2.4744
3.32493
4.13426
4.90103
5.62463
6.30515
6.94328
7.54022
8.09744
8.61666
9.09991
9.54932
9.96681
10.3545
10.7147
11.0492
11.3597
11.6487
11.9176
12.1674
12.4011
12.6197
12.8233
13.0139
13.1922
13.3592
13.5158
13.6628
13.8007
13.9307
14.0534
14.1687
14.2771
14.3791
14.4752
14.5658
14.6512
14.732
14.8084
14.8806
14.9491
15.014
15.0756
15.1341
15.1897
15.2425
15.2927
15.3405
15.386
15.4294
15.4707
15.51
15.5475
15.5833
15.6175
15.65
15.6811
15.7108
15.739
15.766
15.7918
15.8163
15.8397
15.862
15.8833
15.9035
15.9227
15.941
15.9584
15.9748
15.9904
16.0051
16.0189
16.0319
16.0441
16.0555
16.0661
16.0758
16.0848
16.093
16.1004
16.1071
16.113
16.1181
16.1224
16.126
16.129
16.1312
16.1328
16.1339
16.1347
16.1352
16.1359
16.1371
16.1396
16.1442
16.1522
16.1646
16.1855
16.1918
-3.93161
-3.9956
-4.06905
-4.13917
-4.21599
-4.30629
-4.41167
-4.53237
-4.66832
-4.81927
-4.98482
-5.16441
-5.3574
-5.56307
-5.78067
-6.0094
-6.24848
-6.4971
-6.7545
-7.01992
-7.29265
-7.572
-7.85729
-8.14789
-8.44318
-8.74257
-9.04548
-9.35135
-9.6596
-9.96966
-10.281
-10.5929
-10.9048
-11.2161
-11.526
-11.8338
-12.1386
-12.4397
-12.7359
-13.0264
-13.3099
-13.5853
-13.8511
-14.1059
-14.3481
-14.5759
-14.7875
-14.9806
-15.1532
-15.3029
-15.4269
-15.5225
-15.5866
-15.616
-15.6079
-15.5593
-15.466
-15.3222
-15.1229
-14.8642
-14.5427
-14.1552
-13.6994
-13.1736
-12.5773
-11.9113
-11.1776
-10.3799
-9.52336
-8.61464
-7.66164
-6.67328
-5.65913
-4.62909
-3.59297
-2.56022
-1.5396
-0.538982
0.434887
1.37638
2.281
3.14539
3.96726
4.74536
5.47916
6.1688
6.81511
7.41948
7.98341
8.5086
8.99732
9.45187
9.87391
10.2658
10.6301
10.9685
11.2825
11.5757
11.8491
12.1031
12.3402
12.5615
12.7679
12.961
13.1417
13.3109
13.4696
13.6186
13.7585
13.8901
14.0141
14.1308
14.2406
14.344
14.4414
14.5333
14.62
14.702
14.7795
14.8529
14.9224
14.9883
15.0509
15.1103
15.1667
15.2204
15.2714
15.32
15.3662
15.4103
15.4522
15.4922
15.5304
15.5668
15.6015
15.6346
15.6662
15.6963
15.7251
15.7526
15.7788
15.8038
15.8276
15.8503
15.8719
15.8925
15.9121
15.9308
15.9484
15.9652
15.9811
15.9961
16.0102
16.0235
16.0359
16.0476
16.0584
16.0684
16.0776
16.086
16.0936
16.1005
16.1065
16.1118
16.1163
16.1201
16.1231
16.1254
16.127
16.1281
16.1287
16.129
16.1293
16.1299
16.1314
16.1342
16.1393
16.1462
16.1574
16.147
-4.13087
-4.19427
-4.26955
-4.34355
-4.42377
-4.51686
-4.62446
-4.74673
-4.88347
-5.03432
-5.1988
-5.37636
-5.5664
-5.76826
-5.98127
-6.20473
-6.43796
-6.68029
-6.93105
-7.1896
-7.45533
-7.72764
-8.00596
-8.28973
-8.57841
-8.87149
-9.16844
-9.46878
-9.77198
-10.0775
-10.3849
-10.6935
-11.0027
-11.312
-11.6207
-11.928
-12.2331
-12.5353
-12.8336
-13.127
-13.4145
-13.6947
-13.9664
-14.2281
-14.4783
-14.7153
-14.9372
-15.1419
-15.3272
-15.4907
-15.6298
-15.7416
-15.823
-15.8707
-15.8816
-15.8526
-15.7799
-15.6573
-15.4787
-15.24
-14.937
-14.5661
-14.1242
-13.6092
-13.0199
-12.3565
-11.621
-10.8168
-9.9494
-9.0257
-8.05423
-7.04465
-6.00737
-4.9531
-3.89243
-2.83549
-1.79165
-0.7692
0.224818
1.18467
2.10579
2.98476
3.81944
4.60878
5.35242
6.05048
6.70405
7.31489
7.88444
8.4143
8.90737
9.36627
9.79193
10.1875
10.5563
10.8992
11.2174
11.5138
11.7898
12.0465
12.2859
12.5094
12.7181
12.9131
13.0958
13.2668
13.4273
13.5779
13.7193
13.8524
13.9777
14.0957
14.2067
14.3113
14.4099
14.5029
14.5908
14.6739
14.7524
14.8268
14.8973
14.9642
15.0276
15.0879
15.1451
15.1996
15.2513
15.3006
15.3476
15.3923
15.4349
15.4755
15.5143
15.5512
15.5865
15.6201
15.6522
15.6828
15.7121
15.74
15.7666
15.792
15.8163
15.8394
15.8614
15.8823
15.9023
15.9212
15.9392
15.9563
15.9725
15.9877
16.0022
16.0157
16.0284
16.0403
16.0514
16.0616
16.071
16.0797
16.0875
16.0945
16.1007
16.1061
16.1108
16.1146
16.1177
16.12
16.1217
16.1226
16.1231
16.123
16.1228
16.1226
16.1227
16.1234
16.125
16.1264
16.1282
16.1042
-4.36713
-4.42572
-4.49829
-4.57259
-4.65338
-4.74661
-4.85396
-4.97555
-5.1111
-5.26016
-5.42221
-5.59669
-5.78299
-5.9805
-6.18859
-6.40665
-6.63406
-6.87023
-7.11459
-7.36659
-7.6257
-7.89139
-8.16318
-8.44058
-8.72313
-9.01036
-9.30184
-9.59709
-9.89568
-10.1971
-10.5009
-10.8066
-11.1135
-11.4212
-11.7289
-12.036
-12.3418
-12.6455
-12.9461
-13.2427
-13.5343
-13.8197
-14.0976
-14.3666
-14.6252
-14.8717
-15.1043
-15.3209
-15.5194
-15.6974
-15.8522
-15.981
-16.0806
-16.1475
-16.1783
-16.1699
-16.1188
-16.0186
-15.8623
-15.6451
-15.3621
-15.0091
-14.5822
-14.0785
-13.4961
-12.8349
-12.0962
-11.2836
-10.4025
-9.46052
-8.46684
-7.43207
-6.36767
-5.28534
-4.19658
-3.1123
-2.04255
-0.99615
0.0195977
0.998936
1.93726
2.83108
3.67839
4.47866
5.23163
5.93729
6.59728
7.21408
7.78879
8.3229
8.82098
9.28532
9.71604
10.116
10.4881
10.8337
11.1548
11.4536
11.7318
11.9909
12.2324
12.4579
12.6685
12.8655
13.0498
13.2226
13.3847
13.5369
13.6799
13.8144
13.941
14.0602
14.1725
14.2783
14.3782
14.4724
14.5614
14.6455
14.7252
14.8006
14.8721
14.9399
15.0042
15.0653
15.1234
15.1787
15.2312
15.2813
15.3289
15.3743
15.4176
15.4588
15.4982
15.5357
15.5715
15.6057
15.6383
15.6694
15.6992
15.7275
15.7546
15.7805
15.8051
15.8286
15.851
15.8723
15.8926
15.9119
15.9302
15.9476
15.9641
15.9797
15.9944
16.0082
16.0212
16.0333
16.0446
16.0551
16.0648
16.0736
16.0816
16.0888
16.0952
16.1008
16.1056
16.1095
16.1126
16.115
16.1165
16.1174
16.1175
16.1171
16.1162
16.115
16.1135
16.1118
16.1099
16.1057
16.0992
16.0639
-4.61431
-4.66535
-4.73192
-4.80367
-4.88282
-4.97428
-5.07957
-5.19881
-5.33166
-5.47765
-5.63623
-5.80681
-5.9888
-6.18159
-6.3846
-6.59726
-6.81901
-7.04933
-7.2877
-7.53363
-7.78667
-8.04635
-8.31224
-8.58393
-8.86101
-9.14307
-9.42971
-9.72054
-10.0151
-10.3131
-10.6139
-10.9171
-11.2222
-11.5287
-11.8359
-12.1433
-12.45
-12.7555
-13.0587
-13.3588
-13.6548
-13.9455
-14.2298
-14.5062
-14.7734
-15.0296
-15.2732
-15.5021
-15.7141
-15.9069
-16.0779
-16.2243
-16.3428
-16.4298
-16.4816
-16.4947
-16.466
-16.3895
-16.2572
-16.0633
-15.8022
-15.469
-15.0588
-14.5678
-13.9934
-13.3347
-12.5927
-11.7706
-10.8742
-9.91157
-8.89298
-7.83013
-6.73572
-5.62264
-4.50338
-3.38973
-2.29253
-1.22125
-0.183336
0.8156
1.77089
2.6788
3.53782
4.34836
5.11018
5.82288
6.48975
7.11384
7.69531
8.23567
8.73863
9.20633
9.64045
10.0436
10.4182
10.7664
11.09
11.3912
11.6715
11.9328
12.1764
12.4039
12.6165
12.8154
13.0016
13.1762
13.3399
13.4937
13.6383
13.7743
13.9023
14.0229
14.1366
14.2437
14.3448
14.4403
14.5305
14.6158
14.6966
14.7731
14.8456
14.9144
14.9797
15.0418
15.1008
15.1569
15.2102
15.2611
15.3095
15.3556
15.3995
15.4415
15.4815
15.5196
15.556
15.5908
15.624
15.6556
15.6859
15.7147
15.7423
15.7686
15.7937
15.8176
15.8404
15.8621
15.8828
15.9024
15.9211
15.9389
15.9557
15.9716
15.9866
16.0007
16.014
16.0264
16.038
16.0487
16.0586
16.0677
16.0759
16.0833
16.0899
16.0956
16.1005
16.1045
16.1077
16.11
16.1115
16.1122
16.112
16.1111
16.1095
16.1071
16.1039
16.0997
16.094
16.0847
16.0708
16.0263
-4.84765
-4.8898
-4.94843
-5.01559
-5.09161
-5.18006
-5.28219
-5.39807
-5.52734
-5.66952
-5.82404
-5.99032
-6.16775
-6.35577
-6.55381
-6.76132
-6.97781
-7.20277
-7.43574
-7.67628
-7.92398
-8.17842
-8.43924
-8.70604
-8.97847
-9.25617
-9.53878
-9.82595
-10.1173
-10.4124
-10.7109
-11.0123
-11.3161
-11.622
-11.9291
-12.2371
-12.5452
-12.8527
-13.1588
-13.4625
-13.763
-14.0592
-14.3499
-14.6338
-14.9095
-15.1755
-15.4299
-15.671
-15.8965
-16.1043
-16.2916
-16.4557
-16.5935
-16.7011
-16.7747
-16.8101
-16.8045
-16.7525
-16.6458
-16.4769
-16.2397
-15.9282
-15.5367
-15.0605
-14.4957
-13.8406
-13.0956
-12.2639
-11.3513
-10.3667
-9.32148
-8.22868
-7.10256
-5.9574
-4.80661
-3.66299
-2.53841
-1.44305
-0.38415
0.633372
1.60462
2.52545
3.39594
4.21787
4.99008
5.71196
6.38643
7.01588
7.60181
8.14646
8.65284
9.12344
9.56045
9.96635
10.3436
10.6942
11.0203
11.3238
11.6064
11.87
12.1158
12.3455
12.5602
12.7611
12.9493
13.1257
13.2914
13.447
13.5933
13.7309
13.8605
13.9827
14.0978
14.2064
14.3089
14.4057
14.4973
14.5839
14.6659
14.7436
14.8173
14.8872
14.9536
15.0166
15.0766
15.1336
15.1879
15.2395
15.2888
15.3357
15.3804
15.4231
15.4638
15.5026
15.5397
15.575
15.6088
15.6411
15.6719
15.7013
15.7293
15.7561
15.7817
15.8061
15.8293
15.8515
15.8726
15.8926
15.9117
15.9298
15.947
15.9632
15.9786
15.993
16.0066
16.0193
16.0312
16.0422
16.0523
16.0616
16.0701
16.0777
16.0845
16.0904
16.0954
16.0996
16.1028
16.1051
16.1065
16.107
16.1065
16.105
16.1025
16.0989
16.094
16.0872
16.0779
16.0636
16.0432
15.9914
-5.04611
-5.07916
-5.12903
-5.19039
-5.26238
-5.3472
-5.44567
-5.55778
-5.68315
-5.82129
-5.97164
-6.13362
-6.30664
-6.49015
-6.6836
-6.88647
-7.09829
-7.31859
-7.54694
-7.78293
-8.02617
-8.2763
-8.53296
-8.79583
-9.06456
-9.33883
-9.61831
-9.90268
-10.1916
-10.4847
-10.7816
-11.0818
-11.385
-11.6907
-11.9983
-12.3073
-12.617
-12.9268
-13.2359
-13.5434
-13.8485
-14.1501
-14.4471
-14.7382
-15.0222
-15.2975
-15.5625
-15.8154
-16.0541
-16.2763
-16.4795
-16.6611
-16.8178
-16.946
-17.0414
-17.0997
-17.1175
-17.0906
-17.0101
-16.8676
-16.6558
-16.368
-15.9973
-15.5377
-14.9844
-14.3344
-13.5876
-12.7467
-11.8178
-10.8105
-9.73772
-8.6144
-7.45656
-6.27997
-5.09855
-3.92613
-2.7759
-1.65861
-0.580097
0.45617
1.44429
2.37983
3.26273
4.09379
4.87298
5.60119
6.28076
6.91414
7.50353
8.05147
8.56076
9.034
9.47362
9.8821
10.2618
10.6149
10.9435
11.2495
11.5346
11.8006
12.0489
12.2809
12.4979
12.7011
12.8916
13.0702
13.2379
13.3955
13.5437
13.6833
13.8147
13.9386
14.0554
14.1656
14.2697
14.3681
14.4611
14.5492
14.6325
14.7115
14.7865
14.8576
14.9251
14.9893
15.0503
15.1084
15.1637
15.2163
15.2665
15.3142
15.3598
15.4033
15.4448
15.4843
15.5221
15.5582
15.5926
15.6255
15.6569
15.6869
15.7156
15.7429
15.769
15.7939
15.8176
15.8402
15.8618
15.8823
15.9018
15.9203
15.9379
15.9545
15.9702
15.985
15.9989
16.012
16.0241
16.0354
16.0459
16.0555
16.0642
16.0721
16.079
16.0851
16.0903
16.0946
16.0979
16.1002
16.1015
16.1017
16.1008
16.0987
16.0954
16.0905
16.0837
16.0745
16.0616
16.0427
16.0167
15.9589
-5.19388
-5.2182
-5.25938
-5.31442
-5.38201
-5.46303
-5.55781
-5.66619
-5.78777
-5.92205
-6.06848
-6.2265
-6.39555
-6.57508
-6.76457
-6.96353
-7.17149
-7.388
-7.61265
-7.84507
-8.08487
-8.33172
-8.58529
-8.84525
-9.11131
-9.38316
-9.66049
-9.943
-10.2304
-10.5222
-10.8183
-11.1181
-11.4213
-11.7274
-12.0359
-12.3463
-12.658
-12.9702
-13.2824
-13.5937
-13.9032
-14.21
-14.513
-14.811
-15.1028
-15.3868
-15.6617
-15.9255
-16.1764
-16.4121
-16.6304
-16.8283
-17.003
-17.1508
-17.2675
-17.3483
-17.3894
-17.3871
-17.333
-17.217
-17.0315
-16.7686
-16.4202
-15.9791
-15.4389
-14.7955
-14.0479
-13.1986
-12.2536
-11.2239
-10.1245
-8.97213
-7.78491
-6.58006
-5.37066
-4.17045
-2.99466
-1.85416
-0.755734
0.295932
1.29629
2.24242
3.13381
3.97108
4.75511
5.48746
6.17045
6.80662
7.39855
7.94894
8.46057
8.93611
9.37812
9.78906
10.1713
10.527
10.8582
11.1669
11.4547
11.7234
11.9744
12.2091
12.4288
12.6345
12.8275
13.0086
13.1787
13.3386
13.489
13.6307
13.7641
13.89
14.0087
14.1208
14.2267
14.3268
14.4215
14.5111
14.596
14.6765
14.7529
14.8253
14.8942
14.9596
15.0219
15.0811
15.1374
15.1911
15.2423
15.2911
15.3376
15.3819
15.4243
15.4647
15.5032
15.5401
15.5753
15.6089
15.6409
15.6716
15.7008
15.7288
15.7555
15.7809
15.8052
15.8283
15.8504
15.8714
15.8913
15.9103
15.9283
15.9453
15.9614
15.9766
15.9909
16.0043
16.0168
16.0285
16.0392
16.0491
16.0581
16.0663
16.0735
16.0798
16.0851
16.0895
16.0929
16.0951
16.0963
16.0963
16.0951
16.0924
16.0881
16.0819
16.0733
16.0616
16.0454
16.0223
15.9913
15.9289
-5.2807
-5.29715
-5.33029
-5.37894
-5.44202
-5.51932
-5.61062
-5.71556
-5.8337
-5.96455
-6.10757
-6.26222
-6.42796
-6.60427
-6.79064
-6.98658
-7.19164
-7.40539
-7.62744
-7.85739
-8.0949
-8.33963
-8.59125
-8.84948
-9.114
-9.38453
-9.66076
-9.94241
-10.2292
-10.5207
-10.8167
-11.1168
-11.4206
-11.7276
-12.0374
-12.3495
-12.6633
-12.9781
-13.2934
-13.6083
-13.9219
-14.2335
-14.5419
-14.8461
-15.1448
-15.4367
-15.7202
-15.9938
-16.2555
-16.5033
-16.7348
-16.9474
-17.1382
-17.3038
-17.4399
-17.5417
-17.6049
-17.6258
-17.5962
-17.5057
-17.3457
-17.1075
-16.7819
-16.36
-15.834
-15.1987
-14.4524
-13.5978
-12.6414
-11.5933
-10.4698
-9.28986
-8.07315
-6.83862
-5.6025
-4.37926
-3.18292
-2.02441
-0.911271
0.151413
1.15998
2.11245
3.00854
3.84907
4.63547
5.36972
6.0543
6.69192
7.28534
7.83735
8.35078
8.82831
9.27252
9.68588
10.0707
10.4291
10.7632
11.0748
11.3657
11.6374
11.8915
12.1292
12.3519
12.5606
12.7564
12.9402
13.113
13.2755
13.4285
13.5726
13.7084
13.8365
13.9574
14.0716
14.1795
14.2815
14.378
14.4695
14.5561
14.6382
14.7162
14.7902
14.8605
14.9273
14.9908
15.0513
15.1089
15.1638
15.2161
15.2659
15.3135
15.3588
15.4021
15.4434
15.4829
15.5206
15.5566
15.5909
15.6238
15.6551
15.6851
15.7137
15.741
15.7671
15.7919
15.8157
15.8382
15.8598
15.8802
15.8997
15.9182
15.9356
15.9522
15.9678
15.9825
15.9963
16.0092
16.0212
16.0323
16.0425
16.0519
16.0603
16.0677
16.0743
16.0798
16.0843
16.0878
16.0901
16.0911
16.0909
16.0892
16.0859
16.0807
16.0732
16.0629
16.0488
16.0295
16.0025
15.9672
15.901
-5.30161
-5.3116
-5.33788
-5.38057
-5.43934
-5.51317
-5.60131
-5.70322
-5.81837
-5.94629
-6.08645
-6.23835
-6.40147
-6.57532
-6.75939
-6.95323
-7.15637
-7.36839
-7.58889
-7.81749
-8.05383
-8.29757
-8.5484
-8.806
-9.07009
-9.34035
-9.61651
-9.89826
-10.1853
-10.4774
-10.7741
-11.0751
-11.38
-11.6885
-12
-12.3141
-12.6302
-12.9477
-13.266
-13.5843
-13.9018
-14.2178
-14.5311
-14.8407
-15.1455
-15.4441
-15.7351
-16.017
-16.2879
-16.546
-16.7888
-17.014
-17.2187
-17.3995
-17.5526
-17.6731
-17.7563
-17.7979
-17.7903
-17.7232
-17.5878
-17.3742
-17.0721
-16.671
-16.1614
-15.5362
-14.7924
-13.9325
-12.9641
-11.8987
-10.7531
-9.548
-8.30504
-7.04501
-5.78627
-4.54468
-3.33377
-2.16401
-1.0428
0.025026
1.03654
1.99048
2.88701
3.72729
4.51315
5.24689
5.93118
6.56881
7.16264
7.71551
8.23023
8.70948
9.1558
9.5716
9.95915
10.3206
10.6578
10.9727
11.2669
11.5421
11.7995
12.0406
12.2667
12.4787
12.6777
12.8647
13.0405
13.206
13.3618
13.5086
13.6471
13.7777
13.901
14.0175
14.1277
14.2319
14.3305
14.4239
14.5125
14.5965
14.6762
14.7518
14.8238
14.8921
14.9572
15.0191
15.078
15.1342
15.1877
15.2388
15.2875
15.3339
15.3783
15.4206
15.461
15.4996
15.5365
15.5718
15.6054
15.6376
15.6683
15.6976
15.7256
15.7524
15.7779
15.8022
15.8254
15.8475
15.8685
15.8885
15.9075
15.9255
15.9425
15.9586
15.9738
15.988
16.0013
16.0137
16.0252
16.0358
16.0454
16.0541
16.0619
16.0687
16.0744
16.0791
16.0826
16.0849
16.0859
16.0855
16.0834
16.0795
16.0734
16.0646
16.0526
16.0362
16.0141
15.9837
15.9444
15.8753
-5.25727
-5.2622
-5.28286
-5.32017
-5.37474
-5.44519
-5.53034
-5.62943
-5.74189
-5.86722
-6.00496
-6.15462
-6.31573
-6.48781
-6.67037
-6.86296
-7.06511
-7.27639
-7.49639
-7.72471
-7.96097
-8.20483
-8.45595
-8.71401
-8.9787
-9.24972
-9.52677
-9.80956
-10.0978
-10.3911
-10.6893
-10.9919
-11.2986
-11.609
-11.9226
-12.239
-12.5576
-12.8779
-13.1992
-13.5208
-13.842
-14.1619
-14.4797
-14.7941
-15.1043
-15.4088
-15.7063
-15.9953
-16.2742
-16.5409
-16.7934
-17.0293
-17.2459
-17.4399
-17.6076
-17.7446
-17.8458
-17.9057
-17.9171
-17.8711
-17.7583
-17.5681
-17.2888
-16.9079
-16.4141
-15.7983
-15.0561
-14.1891
-13.2059
-12.1209
-10.9533
-9.72577
-8.46177
-7.18341
-5.91021
-4.65852
-3.44149
-2.26893
-1.14762
-0.0817569
0.926432
1.87635
2.76864
3.60484
4.38708
5.11787
5.79995
6.43617
7.02941
7.58247
8.09808
8.57886
9.02725
9.4456
9.83608
10.2007
10.5414
10.86
11.1579
11.4369
11.6982
11.9431
12.1729
12.3886
12.5912
12.7817
12.961
13.1297
13.2887
13.4386
13.5799
13.7134
13.8395
13.9586
14.0712
14.1778
14.2788
14.3744
14.4651
14.5511
14.6327
14.7103
14.784
14.854
14.9207
14.9842
15.0446
15.1022
15.1571
15.2095
15.2595
15.3071
15.3526
15.3961
15.4376
15.4772
15.5151
15.5512
15.5858
15.6188
15.6504
15.6805
15.7093
15.7367
15.763
15.788
15.8118
15.8345
15.8562
15.8767
15.8963
15.9148
15.9324
15.949
15.9646
15.9793
15.9931
16.0059
16.0178
16.0288
16.0388
16.0479
16.0559
16.063
16.069
16.0739
16.0775
16.0799
16.0808
16.0801
16.0777
16.0732
16.0662
16.0562
16.0425
16.024
15.9993
15.9658
15.9231
15.8516
-5.15432
-5.15527
-5.17135
-5.20384
-5.25416
-5.321
-5.40296
-5.49914
-5.60893
-5.73186
-5.86748
-6.01535
-6.17502
-6.34602
-6.52789
-6.72013
-6.92229
-7.13389
-7.35449
-7.58366
-7.82099
-8.0661
-8.31863
-8.57824
-8.84459
-9.11736
-9.39624
-9.68093
-9.97111
-10.2665
-10.5667
-10.8714
-11.1803
-11.4929
-11.8089
-12.1277
-12.4489
-12.7719
-13.0961
-13.4208
-13.7453
-14.0687
-14.3902
-14.7088
-15.0234
-15.3328
-15.6357
-15.9306
-16.2158
-16.4897
-16.7502
-16.9949
-17.2212
-17.426
-17.6059
-17.7568
-17.8734
-17.9484
-17.9751
-17.9466
-17.8531
-17.683
-17.423
-17.0587
-16.5764
-15.9654
-15.2202
-14.3429
-13.3435
-12.2391
-11.0521
-9.80739
-8.52993
-7.24275
-5.96565
-4.71464
-3.50206
-2.33676
-1.22454
-0.168781
0.829092
1.76909
2.6523
3.48053
4.25606
4.9815
5.6596
6.29315
6.88492
7.43762
7.95383
8.43603
8.88656
9.30762
9.70128
10.0695
10.414
10.7365
11.0387
11.3218
11.5873
11.8365
12.0704
12.2902
12.4969
12.6913
12.8743
13.0466
13.2091
13.3623
13.507
13.6435
13.7726
13.8946
14.01
14.1192
14.2227
14.3207
14.4137
14.5019
14.5857
14.6653
14.741
14.8129
14.8814
14.9466
15.0087
15.0679
15.1243
15.1781
15.2294
15.2784
15.3252
15.3698
15.4125
15.4532
15.4922
15.5294
15.5649
15.5989
15.6313
15.6623
15.692
15.7202
15.7472
15.773
15.7975
15.8209
15.8432
15.8644
15.8846
15.9037
15.9218
15.939
15.9551
15.9703
15.9846
15.9979
16.0102
16.0216
16.032
16.0415
16.0499
16.0573
16.0636
16.0686
16.0724
16.0749
16.0757
16.0749
16.0721
16.067
16.0592
16.0481
16.0329
16.0125
15.9854
15.9492
15.9035
15.8301
-5.00456
-5.00229
-5.01448
-5.0424
-5.08805
-5.15051
-5.22853
-5.32121
-5.42798
-5.54837
-5.68198
-5.82839
-5.98713
-6.15775
-6.33974
-6.53258
-6.73575
-6.94873
-7.17102
-7.40215
-7.64165
-7.8891
-8.1441
-8.40625
-8.6752
-8.9506
-9.23212
-9.51943
-9.81222
-10.1102
-10.4129
-10.7201
-11.0315
-11.3466
-11.665
-11.9863
-12.3099
-12.6353
-12.962
-13.2893
-13.6165
-13.9427
-14.2672
-14.5889
-14.9069
-15.2199
-15.5267
-15.8259
-16.1159
-16.395
-16.6611
-16.9121
-17.1454
-17.3581
-17.5469
-17.7081
-17.8359
-17.9216
-17.9593
-17.9439
-17.8652
-17.7107
-17.4651
-17.1119
-16.635
-16.0219
-15.2672
-14.3745
-13.3565
-12.234
-11.0322
-9.77824
-8.49801
-7.21452
-5.94681
-4.70974
-3.51419
-2.36763
-1.27466
-0.237671
0.742632
1.66676
2.53608
3.35257
4.11855
4.83652
5.50912
6.13895
6.72858
7.28051
7.79716
8.2808
8.7336
9.15761
9.55476
9.92684
10.2756
10.6025
10.9092
11.197
11.4672
11.7209
11.9594
12.1837
12.3947
12.5933
12.7804
12.9567
13.123
13.2799
13.4281
13.568
13.7003
13.8255
13.9439
14.056
14.1622
14.2629
14.3584
14.4491
14.5352
14.617
14.6948
14.7688
14.8392
14.9062
14.9701
15.031
15.0891
15.1445
15.1973
15.2477
15.2959
15.3419
15.3858
15.4278
15.4679
15.5062
15.5428
15.5778
15.6112
15.6432
15.6737
15.7028
15.7306
15.7572
15.7825
15.8067
15.8297
15.8516
15.8724
15.8921
15.9109
15.9286
15.9453
15.9611
15.9758
15.9897
16.0025
16.0144
16.0252
16.0351
16.0439
16.0516
16.0582
16.0635
16.0675
16.07
16.0709
16.0699
16.0668
16.0613
16.0527
16.0405
16.0239
16.0017
15.9725
15.9339
15.8857
15.8107
-4.82389
-4.8185
-4.82615
-4.84835
-4.88749
-4.94349
-5.01561
-5.10325
-5.20591
-5.32318
-5.45463
-5.59979
-5.75816
-5.92917
-6.11225
-6.30677
-6.51212
-6.7277
-6.95292
-7.18722
-7.43008
-7.681
-7.93953
-8.20524
-8.47772
-8.75659
-9.0415
-9.33209
-9.62805
-9.92903
-10.2347
-10.5447
-10.8587
-11.1764
-11.4972
-11.8207
-12.1466