/*--------------------------------*- C++ -*----------------------------------*\
| =========                 |                                                 |
| \\      /  F ield         | OpenFOAM: The Open Source CFD Toolbox           |
|  \\    /   O peration     | Version:  2.2.x                                 |
|   \\  /    A nd           | Web:      www.OpenFOAM.org                      |
|    \\/     M anipulation  |                                                 |
\*---------------------------------------------------------------------------*/
FoamFile
{
    version     2.0;
    format      ascii;
    class       surfaceScalarField;
    location    "150";
    object      phi;
}
// * * * * * * * * * * * * * * * * * * * * * * * * * * * * * * * * * * * * * //

dimensions      [0 3 -1 0 0 0 0];

internalField   nonuniform List<scalar> 
24170
(
3.08803e-06
4.58639e-08
3.0138e-06
7.4233e-08
2.95123e-06
6.25671e-08
2.88838e-06
6.28501e-08
2.82808e-06
6.0294e-08
2.77175e-06
5.63376e-08
2.71938e-06
5.23685e-08
2.67068e-06
4.86984e-08
2.62532e-06
4.53616e-08
2.58296e-06
4.23599e-08
2.54327e-06
3.96893e-08
2.50592e-06
3.73447e-08
2.4706e-06
3.53286e-08
2.43693e-06
3.36712e-08
2.40445e-06
3.24765e-08
2.37226e-06
3.21876e-08
2.33743e-06
3.48301e-08
4.27528e-08
2.29468e-06
3.46844e-06
3.38676e-08
3.45748e-06
8.51934e-08
3.4425e-06
7.75509e-08
3.42705e-06
7.82968e-08
3.41005e-06
7.72945e-08
3.39189e-06
7.44902e-08
3.37289e-06
7.1374e-08
3.35324e-06
6.83458e-08
3.33314e-06
6.54656e-08
3.31272e-06
6.27737e-08
3.2921e-06
6.03147e-08
3.27131e-06
5.81364e-08
3.25033e-06
5.63024e-08
3.22908e-06
5.49212e-08
3.20734e-06
5.4214e-08
3.18483e-06
5.47017e-08
3.16232e-06
5.73467e-08
6.18485e-08
3.14322e-06
3.80907e-06
3.69902e-08
3.81739e-06
7.68782e-08
3.81914e-06
7.57949e-08
3.82057e-06
7.68705e-08
3.82054e-06
7.73214e-08
3.81899e-06
7.60363e-08
3.81624e-06
7.4129e-08
3.81249e-06
7.20988e-08
3.80787e-06
7.00791e-08
3.80249e-06
6.81537e-08
3.7964e-06
6.6406e-08
3.78962e-06
6.49218e-08
3.78211e-06
6.38052e-08
3.77382e-06
6.32094e-08
3.76465e-06
6.33876e-08
3.75458e-06
6.47675e-08
3.74406e-06
6.78672e-08
7.20936e-08
3.73382e-06
4.20584e-06
3.57049e-08
4.21471e-06
6.80073e-08
4.21854e-06
7.19708e-08
4.22149e-06
7.39208e-08
4.2236e-06
7.52061e-08
4.2248e-06
7.48348e-08
4.22529e-06
7.36385e-08
4.2252e-06
7.21947e-08
4.22456e-06
7.07119e-08
4.22341e-06
6.93067e-08
4.22173e-06
6.80829e-08
4.21951e-06
6.7145e-08
4.2167e-06
6.66142e-08
4.21326e-06
6.66536e-08
4.20915e-06
6.74945e-08
4.20448e-06
6.9443e-08
4.19958e-06
7.27635e-08
7.69695e-08
4.19471e-06
4.64052e-06
3.24886e-08
4.64808e-06
6.04463e-08
4.65248e-06
6.75773e-08
4.6559e-06
7.04965e-08
4.65878e-06
7.23258e-08
4.661e-06
7.26131e-08
4.66264e-06
7.20031e-08
4.66376e-06
7.10716e-08
4.6644e-06
7.00716e-08
4.66456e-06
6.91419e-08
4.66425e-06
6.83995e-08
4.66343e-06
6.79591e-08
4.6621e-06
6.79486e-08
4.66023e-06
6.85233e-08
4.65785e-06
6.98772e-08
4.65507e-06
7.22222e-08
4.65213e-06
7.57055e-08
8.00532e-08
4.64904e-06
5.11813e-06
2.89563e-08
5.12491e-06
5.36616e-08
5.12981e-06
6.26738e-08
5.13373e-06
6.65808e-08
5.1371e-06
6.89546e-08
5.13985e-06
6.98627e-08
5.14202e-06
6.98389e-08
5.14366e-06
6.9426e-08
5.14483e-06
6.89072e-08
5.14552e-06
6.84435e-08
5.14576e-06
6.81645e-08
5.14553e-06
6.81916e-08
5.14482e-06
6.86514e-08
5.14366e-06
6.96836e-08
5.1421e-06
7.14401e-08
5.14026e-06
7.40621e-08
5.13834e-06
7.76245e-08
8.19258e-08
5.13647e-06
5.64431e-06
2.56584e-08
5.65053e-06
4.74317e-08
5.65574e-06
5.74716e-08
5.66003e-06
6.2291e-08
5.66376e-06
6.52252e-08
5.66689e-06
6.67294e-08
5.66944e-06
6.72857e-08
5.67147e-06
6.73961e-08
5.67302e-06
6.73621e-08
5.6741e-06
6.73632e-08
5.67472e-06
6.75379e-08
5.67491e-06
6.80099e-08
5.67466e-06
6.88981e-08
5.67402e-06
7.03205e-08
5.67307e-06
7.23904e-08
5.67194e-06
7.51957e-08
5.6708e-06
7.87646e-08
8.2924e-08
5.6698e-06
4.40834e-06
2.3427e-08
4.41242e-06
4.33571e-08
4.41622e-06
5.36652e-08
4.41947e-06
5.90408e-08
4.42233e-06
6.23729e-08
4.42478e-06
6.42744e-08
4.42684e-06
6.52304e-08
4.42852e-06
6.57154e-08
4.42985e-06
6.60309e-08
4.43085e-06
6.63647e-08
4.43153e-06
6.6859e-08
4.4319e-06
6.76354e-08
4.43199e-06
6.88048e-08
4.43185e-06
7.04688e-08
4.43152e-06
7.27147e-08
4.43112e-06
7.55995e-08
4.43076e-06
7.91254e-08
8.31174e-08
4.43056e-06
5.14211e-06
2.11705e-08
5.14622e-06
3.92472e-08
5.15029e-06
4.96036e-08
5.1539e-06
5.54283e-08
5.15714e-06
5.91355e-08
5.15998e-06
6.14332e-08
5.16241e-06
6.28008e-08
5.16444e-06
6.36801e-08
5.16611e-06
6.43672e-08
5.16742e-06
6.50537e-08
5.1684e-06
6.58815e-08
5.16906e-06
6.69681e-08
5.16946e-06
6.84126e-08
5.16963e-06
7.02982e-08
5.16965e-06
7.26874e-08
5.16964e-06
7.561e-08
5.16972e-06
7.90449e-08
8.28181e-08
5.17002e-06
5.99804e-06
1.89195e-08
6.00213e-06
3.51636e-08
6.00639e-06
4.53434e-08
6.01034e-06
5.1481e-08
6.01396e-06
5.55131e-08
6.01721e-06
5.81842e-08
6.02005e-06
5.99574e-08
6.0225e-06
6.12358e-08
6.02456e-06
6.23037e-08
6.02626e-06
6.33504e-08
6.02763e-06
6.45143e-08
6.0287e-06
6.59036e-08
6.02951e-06
6.7604e-08
6.03012e-06
6.96793e-08
6.03064e-06
7.21685e-08
6.03117e-06
7.50783e-08
6.03185e-06
7.83696e-08
8.18706e-08
6.0328e-06
6.99648e-06
1.67022e-08
7.00049e-06
3.11597e-08
7.0049e-06
4.09314e-08
7.00916e-06
4.72225e-08
7.01317e-06
5.15071e-08
7.01684e-06
5.45058e-08
7.02015e-06
5.66565e-08
7.02306e-06
5.83191e-08
7.02561e-06
5.97587e-08
7.0278e-06
6.11555e-08
7.02968e-06
6.26395e-08
7.03128e-06
6.43068e-08
7.03265e-06
6.62273e-08
7.03389e-06
6.84456e-08
7.03507e-06
7.09803e-08
7.03633e-06
7.38197e-08
7.03779e-06
7.69129e-08
8.00949e-08
7.03956e-06
8.16118e-06
1.45399e-08
8.16508e-06
2.72592e-08
8.1696e-06
3.64067e-08
8.17416e-06
4.2669e-08
8.17856e-06
4.71066e-08
8.1827e-06
5.03625e-08
8.18652e-06
5.28378e-08
8.18999e-06
5.48467e-08
8.19313e-06
5.6626e-08
8.19594e-06
5.83411e-08
8.19847e-06
6.01082e-08
8.20077e-06
6.20087e-08
8.2029e-06
6.40957e-08
8.20495e-06
6.63963e-08
8.20702e-06
6.89122e-08
8.20922e-06
7.16193e-08
8.21167e-06
7.44616e-08
7.72865e-08
8.21448e-06
9.51983e-06
1.24391e-08
9.52363e-06
2.3454e-08
9.52826e-06
3.17848e-08
9.53311e-06
3.78179e-08
9.53794e-06
4.22768e-08
9.54261e-06
4.56909e-08
9.54704e-06
4.84097e-08
9.55119e-06
5.06993e-08
9.55505e-06
5.2761e-08
9.55865e-06
5.47385e-08
9.56203e-06
5.67297e-08
9.56524e-06
5.87994e-08
9.56835e-06
6.0984e-08
9.57145e-06
6.32956e-08
9.57464e-06
6.57241e-08
9.57802e-06
6.8239e-08
9.5817e-06
7.07854e-08
7.32279e-08
9.58576e-06
1.11048e-05
1.03854e-08
1.11085e-05
1.97002e-08
1.11133e-05
2.70405e-08
1.11184e-05
3.26321e-08
1.11238e-05
3.69472e-08
1.11291e-05
4.03874e-08
1.11342e-05
4.32373e-08
1.11392e-05
4.57109e-08
1.1144e-05
4.79695e-08
1.11486e-05
5.01286e-08
1.11531e-05
5.22646e-08
1.11575e-05
5.44236e-08
1.11618e-05
5.66269e-08
1.11663e-05
5.88753e-08
1.11708e-05
6.11521e-08
1.11756e-05
6.34251e-08
1.11808e-05
6.56453e-08
6.76982e-08
1.11863e-05
1.29537e-05
8.33667e-09
1.29575e-05
1.59097e-08
1.29624e-05
2.20888e-08
1.2968e-05
2.70175e-08
1.2974e-05
3.09926e-08
1.29801e-05
3.42924e-08
1.29862e-05
3.71285e-08
1.29922e-05
3.96587e-08
1.29982e-05
4.20013e-08
1.30041e-05
4.42386e-08
1.30099e-05
4.64232e-08
1.30158e-05
4.85825e-08
1.30217e-05
5.07248e-08
1.30277e-05
5.28426e-08
1.3034e-05
5.49163e-08
1.30405e-05
5.69164e-08
1.30473e-05
5.88022e-08
6.04817e-08
1.30545e-05
1.51106e-05
6.21636e-09
1.51145e-05
1.19371e-08
1.51199e-05
1.67618e-08
1.51261e-05
2.07916e-08
1.51329e-05
2.42029e-08
1.514e-05
2.71658e-08
1.51473e-05
2.98148e-08
1.51547e-05
3.22496e-08
1.51622e-05
3.45423e-08
1.51697e-05
3.67405e-08
1.51772e-05
3.8871e-08
1.51849e-05
4.09434e-08
1.51927e-05
4.29544e-08
1.52006e-05
4.48911e-08
1.52088e-05
4.67331e-08
1.52172e-05
4.84551e-08
1.5226e-05
5.0026e-08
5.1375e-08
1.52351e-05
1.76268e-05
3.90309e-09
1.76311e-05
7.55606e-09
1.76371e-05
1.07763e-08
1.76443e-05
1.36422e-08
1.76522e-05
1.62416e-08
1.76608e-05
1.86497e-08
1.76696e-05
2.09222e-08
1.76788e-05
2.30983e-08
1.76881e-05
2.52022e-08
1.76976e-05
2.72452e-08
1.77073e-05
2.92281e-08
1.77171e-05
3.1143e-08
1.77271e-05
3.29763e-08
1.77372e-05
3.471e-08
1.77476e-05
3.63238e-08
1.77583e-05
3.7797e-08
1.77692e-05
3.91064e-08
4.02005e-08
1.77804e-05
1.78285e-05
1.56126e-09
1.7833e-05
3.09658e-09
1.78391e-05
4.62491e-09
1.78466e-05
6.21664e-09
1.78549e-05
7.88947e-09
1.78639e-05
9.63212e-09
1.78734e-05
1.14263e-08
1.78833e-05
1.32542e-08
1.78934e-05
1.5096e-08
1.79037e-05
1.69302e-08
1.79142e-05
1.87335e-08
1.79249e-05
2.04826e-08
1.79357e-05
2.21542e-08
1.79467e-05
2.37258e-08
1.79578e-05
2.51767e-08
1.79691e-05
2.64886e-08
1.79806e-05
2.76437e-08
2.86035e-08
1.79922e-05
1.58835e-05
-6.39739e-10
1.58877e-05
-1.10812e-09
1.58936e-05
-1.1892e-09
1.59006e-05
-8.01888e-10
1.59085e-05
-2.22519e-13
1.5917e-05
1.11274e-09
1.5926e-05
2.45077e-09
1.59353e-05
3.94681e-09
1.59448e-05
5.5436e-09
1.59546e-05
7.19092e-09
1.59644e-05
8.84585e-09
1.59745e-05
1.04716e-08
1.59846e-05
1.20368e-08
1.59948e-05
1.35148e-08
1.60051e-05
1.48833e-08
1.60154e-05
1.61246e-08
1.60259e-05
1.72234e-08
1.81495e-08
1.60363e-05
1.41508e-05
-2.76125e-09
1.41549e-05
-5.19446e-09
1.41605e-05
-6.83551e-09
1.41673e-05
-7.56031e-09
1.41748e-05
-7.53256e-09
1.41829e-05
-6.97029e-09
1.41914e-05
-6.02492e-09
1.42001e-05
-4.80618e-09
1.42091e-05
-3.40575e-09
1.42182e-05
-1.89943e-09
1.42273e-05
-3.46909e-10
1.42366e-05
1.20448e-09
1.42459e-05
2.71663e-09
1.42553e-05
4.15907e-09
1.42647e-05
5.50782e-09
1.4274e-05
6.74467e-09
1.42834e-05
7.85527e-09
8.81406e-09
1.42927e-05
1.26071e-05
-4.81471e-09
1.26111e-05
-9.25032e-09
1.26167e-05
-1.24275e-08
1.26233e-05
-1.41389e-08
1.26305e-05
-1.47576e-08
1.26382e-05
-1.4648e-08
1.26462e-05
-1.40145e-08
1.26544e-05
-1.30036e-08
1.26627e-05
-1.1741e-08
1.26712e-05
-1.03247e-08
1.26796e-05
-8.82762e-09
1.26881e-05
-7.30536e-09
1.26967e-05
-5.80144e-09
1.27052e-05
-4.34972e-09
1.27136e-05
-2.97633e-09
1.27221e-05
-1.70114e-09
1.27305e-05
-5.39792e-10
4.84267e-10
1.27388e-05
1.12317e-05
-6.75142e-09
1.12358e-05
-1.3352e-08
1.12415e-05
-1.80508e-08
1.12479e-05
-2.05666e-08
1.12548e-05
-2.16839e-08
1.12621e-05
-2.19237e-08
1.12696e-05
-2.15127e-08
1.12772e-05
-2.06339e-08
1.12849e-05
-1.94484e-08
1.12927e-05
-1.80726e-08
1.13004e-05
-1.65886e-08
1.13082e-05
-1.50576e-08
1.13159e-05
-1.35265e-08
1.13236e-05
-1.20311e-08
1.13312e-05
-1.05989e-08
1.13388e-05
-9.25106e-09
1.13462e-05
-8.00417e-09
-6.88059e-09
1.13536e-05
1.00063e-05
-8.44883e-09
1.00106e-05
-1.76005e-08
1.00163e-05
-2.378e-08
1.00226e-05
-2.68365e-08
1.00292e-05
-2.82973e-08
1.0036e-05
-2.8784e-08
1.0043e-05
-2.85037e-08
1.00501e-05
-2.76841e-08
1.00571e-05
-2.6521e-08
1.00642e-05
-2.51426e-08
1.00713e-05
-2.36362e-08
1.00783e-05
-2.2066e-08
1.00852e-05
-2.0481e-08
1.00921e-05
-1.89182e-08
1.00989e-05
-1.74063e-08
1.01056e-05
-1.59694e-08
1.01123e-05
-1.46282e-08
-1.34111e-08
1.01188e-05
8.91435e-06
-9.69599e-09
8.91886e-06
-2.21143e-08
8.92469e-06
-2.96098e-08
8.93072e-06
-3.28746e-08
8.93697e-06
-3.45475e-08
8.94336e-06
-3.51761e-08
8.94979e-06
-3.49298e-08
8.95621e-06
-3.41031e-08
8.96261e-06
-3.29195e-08
8.96897e-06
-3.15093e-08
8.9753e-06
-2.99591e-08
8.98156e-06
-2.83337e-08
8.98776e-06
-2.66817e-08
8.99389e-06
-2.5039e-08
8.99991e-06
-2.34335e-08
9.00583e-06
-2.1888e-08
9.01163e-06
-2.04221e-08
-1.9062e-08
9.01728e-06
7.94123e-06
-1.02543e-08
7.94624e-06
-2.7126e-08
7.95201e-06
-3.53824e-08
7.95766e-06
-3.85279e-08
7.96349e-06
-4.03754e-08
7.96937e-06
-4.10621e-08
7.9752e-06
-4.07625e-08
7.98097e-06
-3.98704e-08
7.98668e-06
-3.86281e-08
7.99233e-06
-3.71596e-08
7.99792e-06
-3.55482e-08
8.00344e-06
-3.38567e-08
8.00889e-06
-3.21313e-08
8.01426e-06
-3.04056e-08
8.01953e-06
-2.87055e-08
8.0247e-06
-2.7054e-08
8.02975e-06
-2.54788e-08
-2.40319e-08
8.03472e-06
7.07315e-06
-9.07156e-09
7.07927e-06
-3.32502e-08
7.08472e-06
-4.08327e-08
7.08976e-06
-4.35659e-08
7.09501e-06
-4.5631e-08
7.10028e-06
-4.633e-08
7.10546e-06
-4.59463e-08
7.11057e-06
-4.4978e-08
7.11561e-06
-4.36661e-08
7.12058e-06
-4.2126e-08
7.12547e-06
-4.04398e-08
7.13028e-06
-3.86701e-08
7.13501e-06
-3.68613e-08
7.13965e-06
-3.5044e-08
7.14418e-06
-3.32387e-08
7.14859e-06
-3.14579e-08
7.15282e-06
-2.97106e-08
-2.8008e-08
7.15679e-06
6.29729e-06
-3.85404e-09
6.30587e-06
-4.1829e-08
6.31128e-06
-4.62441e-08
6.31604e-06
-4.83286e-08
6.32077e-06
-5.03553e-08
6.3252e-06
-5.07584e-08
6.32939e-06
-5.0139e-08
6.33344e-06
-4.90342e-08
6.3374e-06
-4.76266e-08
6.34128e-06
-4.60041e-08
6.34508e-06
-4.42408e-08
6.34881e-06
-4.23953e-08
6.35245e-06
-4.05093e-08
6.35602e-06
-3.86107e-08
6.3595e-06
-3.67153e-08
6.36286e-06
-3.48259e-08
6.3661e-06
-3.29462e-08
-3.10885e-08
6.36918e-06
5.60124e-06
9.80787e-09
5.61111e-06
-5.17016e-08
5.61562e-06
-5.07604e-08
5.62061e-06
-5.33168e-08
5.62528e-06
-5.50219e-08
5.62908e-06
-5.45593e-08
5.63217e-06
-5.32305e-08
5.63473e-06
-5.16001e-08
5.63689e-06
-4.97857e-08
5.63873e-06
-4.78418e-08
5.64031e-06
-4.58221e-08
5.64168e-06
-4.37695e-08
5.64289e-06
-4.17146e-08
5.64395e-06
-3.96767e-08
5.6449e-06
-3.76616e-08
5.64572e-06
-3.56507e-08
5.64636e-06
-3.3586e-08
-3.12079e-08
5.64648e-06
5.00899e-06
3.12123e-09
5.00557e-06
-4.82826e-08
4.99757e-06
-4.2752e-08
4.9915e-06
-4.72496e-08
4.98541e-06
-4.89392e-08
4.97892e-06
-4.80641e-08
4.97197e-06
-4.62787e-08
4.96455e-06
-4.41832e-08
4.95671e-06
-4.19523e-08
4.94854e-06
-3.96763e-08
4.94014e-06
-3.74175e-08
4.93158e-06
-3.52154e-08
4.92296e-06
-3.30937e-08
4.91435e-06
-3.10639e-08
4.90581e-06
-2.91255e-08
4.89742e-06
-2.72576e-08
4.88922e-06
-2.53927e-08
-2.30849e-08
4.8811e-06
4.45967e-06
4.41139e-06
4.36863e-06
4.32138e-06
4.27245e-06
4.22438e-06
4.1781e-06
4.13392e-06
4.09196e-06
4.05229e-06
4.01487e-06
3.97965e-06
3.94656e-06
3.9155e-06
3.88637e-06
3.85911e-06
3.83372e-06
3.81064e-06
-6.5313e-09
6.54509e-09
-8.76439e-08
8.11074e-08
-2.05556e-07
1.17907e-07
-3.40626e-07
1.35071e-07
-4.84625e-07
1.43999e-07
-6.3407e-07
1.49444e-07
-7.87155e-07
1.53085e-07
-9.42652e-07
1.55498e-07
-1.09961e-06
1.56955e-07
-1.25723e-06
1.57626e-07
-1.41487e-06
1.57639e-07
-1.57196e-06
1.57098e-07
-1.72805e-06
1.5609e-07
-1.88275e-06
1.54694e-07
-2.03572e-06
1.52977e-07
-2.18673e-06
1.51e-07
-2.33555e-06
1.48818e-07
-2.48202e-06
1.46476e-07
-2.62604e-06
1.44015e-07
-2.76751e-06
1.41471e-07
-2.90638e-06
1.38872e-07
-3.04262e-06
1.36241e-07
-3.17622e-06
1.33599e-07
-3.30718e-06
1.30959e-07
-3.43552e-06
1.28333e-07
-3.56124e-06
1.25728e-07
-3.68439e-06
1.23147e-07
-3.80498e-06
1.20592e-07
-3.92304e-06
1.18063e-07
-4.03859e-06
1.15553e-07
-4.15165e-06
1.13059e-07
-4.26223e-06
1.10573e-07
-4.37031e-06
1.08086e-07
-4.4759e-06
1.05588e-07
-4.57897e-06
1.03068e-07
-4.67949e-06
1.00513e-07
-4.7774e-06
9.79094e-08
-4.87264e-06
9.52421e-08
-4.96513e-06
9.24954e-08
-5.05479e-06
8.96525e-08
-5.14148e-06
8.66954e-08
-5.22508e-06
8.36049e-08
-5.30544e-06
8.03607e-08
-5.38238e-06
7.69417e-08
-5.45571e-06
7.33257e-08
-5.5252e-06
6.94898e-08
-5.59061e-06
6.54101e-08
-5.65167e-06
6.10612e-08
-5.70809e-06
5.64168e-08
-5.75954e-06
5.14496e-08
-5.80568e-06
4.61331e-08
-5.84612e-06
4.04402e-08
-5.88047e-06
3.43435e-08
-5.90828e-06
2.78142e-08
-5.92911e-06
2.08251e-08
-5.94246e-06
1.33513e-08
-5.94782e-06
5.36814e-09
-5.94466e-06
-3.16263e-09
-5.93243e-06
-1.22276e-08
-5.91066e-06
-2.17757e-08
-5.87888e-06
-3.17763e-08
-5.83671e-06
-4.2176e-08
-5.7838e-06
-5.29048e-08
-5.71993e-06
-6.38751e-08
-5.64495e-06
-7.49824e-08
-5.55884e-06
-8.6106e-08
-5.46173e-06
-9.71117e-08
-5.35388e-06
-1.07856e-07
-5.23569e-06
-1.18192e-07
-5.10772e-06
-1.27972e-07
-4.97066e-06
-1.37058e-07
-4.82534e-06
-1.45323e-07
-4.67268e-06
-1.52661e-07
-4.51369e-06
-1.5899e-07
-4.34944e-06
-1.64252e-07
-4.18103e-06
-1.68417e-07
-4.00955e-06
-1.71483e-07
-3.83608e-06
-1.73472e-07
-3.66166e-06
-1.7443e-07
-3.48724e-06
-1.74421e-07
-3.31373e-06
-1.73521e-07
-3.14191e-06
-1.71819e-07
-2.9725e-06
-1.69413e-07
-2.8061e-06
-1.66402e-07
-2.64321e-06
-1.62881e-07
-2.48426e-06
-1.58946e-07
-2.32957e-06
-1.54688e-07
-2.17937e-06
-1.5019e-07
-2.03384e-06
-1.45525e-07
-1.89308e-06
-1.40759e-07
-1.75712e-06
-1.35954e-07
-1.62596e-06
-1.3116e-07
-1.49954e-06
-1.26414e-07
-1.37779e-06
-1.21755e-07
-1.26057e-06
-1.17217e-07
-1.14777e-06
-1.1281e-07
-1.03922e-06
-1.08547e-07
-9.34756e-07
-1.04466e-07
-8.34192e-07
-1.00566e-07
-7.37386e-07
-9.68071e-08
-6.44119e-07
-9.32655e-08
-5.54181e-07
-8.99378e-08
-4.67471e-07
-8.6713e-08
-3.83718e-07
-8.37569e-08
-3.02741e-07
-8.09792e-08
-2.24525e-07
-7.82233e-08
-1.48672e-07
-7.58562e-08
-7.48506e-08
-7.38181e-08
-3.06836e-09
-7.17837e-08
6.6261e-08
-6.93313e-08
1.32785e-07
-6.65213e-08
1.96589e-07
-6.37938e-08
2.57906e-07
-6.13052e-08
3.16946e-07
-5.90286e-08
3.73896e-07
-5.69345e-08
4.28911e-07
-5.49982e-08
4.82118e-07
-5.3198e-08
5.33629e-07
-5.15113e-08
5.83539e-07
-4.99175e-08
6.3193e-07
-4.84028e-08
6.78878e-07
-4.69585e-08
7.24452e-07
-4.55787e-08
7.68714e-07
-4.42599e-08
8.1172e-07
-4.30001e-08
8.53522e-07
-4.17954e-08
8.94168e-07
-4.06405e-08
9.33704e-07
-3.95302e-08
9.72168e-07
-3.84612e-08
1.0096e-06
-3.74311e-08
1.04603e-06
-3.64362e-08
1.0815e-06
-3.5473e-08
1.11604e-06
-3.45409e-08
1.14968e-06
-3.36402e-08
1.18245e-06
-3.27694e-08
1.21437e-06
-3.19251e-08
1.24547e-06
-3.11049e-08
1.27577e-06
-3.03082e-08
1.3053e-06
-2.95345e-08
1.33408e-06
-2.8783e-08
1.36213e-06
-2.80531e-08
1.38947e-06
-2.73451e-08
1.41613e-06
-2.66586e-08
1.44212e-06
-2.59921e-08
1.46746e-06
-2.53436e-08
1.49217e-06
-2.47121e-08
1.51627e-06
-2.4098e-08
1.53977e-06
-2.3501e-08
1.56269e-06
-2.29201e-08
1.58504e-06
-2.23545e-08
1.60685e-06
-2.18046e-08
1.62812e-06
-2.12708e-08
1.64887e-06
-2.07536e-08
1.66912e-06
-2.02525e-08
1.68889e-06
-1.97652e-08
1.70818e-06
-1.92893e-08
1.727e-06
-1.88248e-08
1.74538e-06
-1.83742e-08
1.76332e-06
-1.7939e-08
1.78084e-06
-1.75169e-08
1.79794e-06
-1.71022e-08
1.81463e-06
-1.66935e-08
1.83093e-06
-1.62923e-08
1.84682e-06
-1.58915e-08
1.8623e-06
-1.54839e-08
1.87735e-06
-1.506e-08
1.89195e-06
-1.46029e-08
1.90604e-06
-1.40896e-08
1.91954e-06
-1.34975e-08
1.93238e-06
-1.28346e-08
1.94448e-06
-1.21028e-08
1.95575e-06
-1.12676e-08
1.96601e-06
-1.02623e-08
1.97502e-06
-8.99613e-09
1.98235e-06
-7.32286e-09
1.98736e-06
-5.01184e-09
1.98911e-06
-1.74905e-09
1.9858e-06
3.31012e-09
1.97325e-06
1.25473e-08
1.94102e-06
3.22232e-08
9.23626e-08
1.84866e-06
-1.21734e-07
1.2828e-07
-2.37722e-07
1.97098e-07
-3.57744e-07
2.37929e-07
-4.86232e-07
2.63557e-07
-6.22325e-07
2.80089e-07
-7.64124e-07
2.91241e-07
-9.09904e-07
2.98863e-07
-1.0583e-06
3.03887e-07
-1.20821e-06
3.06867e-07
-1.35877e-06
3.08184e-07
-1.50925e-06
3.08126e-07
-1.65909e-06
3.0693e-07
-1.80779e-06
3.04793e-07
-1.95498e-06
3.01883e-07
-2.10035e-06
2.98345e-07
-2.24366e-06
2.94308e-07
-2.38472e-06
2.8988e-07
-2.5234e-06
2.85155e-07
-2.6596e-06
2.80214e-07
-2.79325e-06
2.75124e-07
-2.92432e-06
2.6994e-07
-3.05279e-06
2.64708e-07
-3.17865e-06
2.59463e-07
-3.30192e-06
2.54231e-07
-3.42262e-06
2.49032e-07
-3.54077e-06
2.43877e-07
-3.6564e-06
2.38772e-07
-3.76952e-06
2.33717e-07
-3.88016e-06
2.28707e-07
-3.98835e-06
2.23735e-07
-4.09407e-06
2.18788e-07
-4.19735e-06
2.1385e-07
-4.29816e-06
2.08904e-07
-4.3965e-06
2.03927e-07
-4.49232e-06
1.98898e-07
-4.5856e-06
1.93791e-07
-4.67627e-06
1.88578e-07
-4.76426e-06
1.83231e-07
-4.84948e-06
1.77719e-07
-4.93184e-06
1.72008e-07
-5.01122e-06
1.66065e-07
-5.08747e-06
1.59852e-07
-5.16044e-06
1.53331e-07
-5.22997e-06
1.46462e-07
-5.29584e-06
1.39203e-07
-5.35786e-06
1.31508e-07
-5.41578e-06
1.23331e-07
-5.46934e-06
1.14625e-07
-5.51826e-06
1.05338e-07
-5.56222e-06
9.54186e-08
-5.6009e-06
8.48161e-08
-5.63394e-06
7.34793e-08
-5.66096e-06
6.13568e-08
-5.68154e-06
4.8396e-08
-5.69526e-06
3.45447e-08
-5.70167e-06
1.97539e-08
-5.70028e-06
3.97984e-09
-5.69067e-06
-1.27799e-08
-5.6724e-06
-3.05037e-08
-5.64502e-06
-4.91653e-08
-5.60809e-06
-6.87011e-08
-5.56126e-06
-8.90113e-08
-5.5042e-06
-1.09962e-07
-5.43668e-06
-1.31385e-07
-5.35859e-06
-1.53077e-07
-5.26989e-06
-1.74802e-07
-5.1707e-06
-1.963e-07
-5.06127e-06
-2.17289e-07
-4.94198e-06
-2.37477e-07
-4.81338e-06
-2.56577e-07
-4.67613e-06
-2.74313e-07
-4.53101e-06
-2.90439e-07
-4.37893e-06
-3.04743e-07
-4.22085e-06
-3.17064e-07
-4.05781e-06
-3.27289e-07
-3.89086e-06
-3.3536e-07
-3.72106e-06
-3.41272e-07
-3.54946e-06
-3.45072e-07
-3.37704e-06
-3.46847e-07
-3.20473e-06
-3.46725e-07
-3.03339e-06
-3.44859e-07
-2.86379e-06
-3.41426e-07
-2.69659e-06
-3.36613e-07
-2.53237e-06
-3.30616e-07
-2.37163e-06
-3.23626e-07
-2.21476e-06
-3.15826e-07
-2.06206e-06
-3.07396e-07
-1.91376e-06
-2.98498e-07
-1.77001e-06
-2.89274e-07
-1.63092e-06
-2.79854e-07
-1.49651e-06
-2.70362e-07
-1.36677e-06
-2.60898e-07
-1.24166e-06
-2.51528e-07
-1.12107e-06
-2.42332e-07
-1.0049e-06
-2.3338e-07
-8.93012e-07
-2.24693e-07
-7.85262e-07
-2.16287e-07
-6.81478e-07
-2.08239e-07
-5.81467e-07
-2.00566e-07
-4.85092e-07
-1.93172e-07
-3.9216e-07
-1.86191e-07
-3.02437e-07
-1.79652e-07
-2.15808e-07
-1.73335e-07
-1.32094e-07
-1.67465e-07
-5.09501e-08
-1.62118e-07
2.77004e-08
-1.5687e-07
1.03497e-07
-1.51651e-07
1.76358e-07
-1.46675e-07
2.46644e-07
-1.42063e-07
3.14505e-07
-1.37184e-07
3.80014e-07
-1.32028e-07
4.43365e-07
-1.27146e-07
5.04628e-07
-1.2257e-07
5.639e-07
-1.18307e-07
6.21285e-07
-1.14329e-07
6.76883e-07
-1.10606e-07
7.30788e-07
-1.07106e-07
7.83086e-07
-1.03802e-07
8.33855e-07
-1.00675e-07
8.83168e-07
-9.77036e-08
9.31091e-07
-9.48728e-08
9.77684e-07
-9.21693e-08
1.023e-06
-8.95824e-08
1.0671e-06
-8.71027e-08
1.11002e-06
-8.4722e-08
1.15181e-06
-8.24335e-08
1.19251e-06
-8.02317e-08
1.23216e-06
-7.81105e-08
1.2708e-06
-7.60646e-08
1.30845e-06
-7.40897e-08
1.34517e-06
-7.21831e-08
1.38097e-06
-7.03413e-08
1.41588e-06
-6.85595e-08
1.44994e-06
-6.68325e-08
1.48316e-06
-6.51564e-08
1.51557e-06
-6.35293e-08
1.54721e-06
-6.19495e-08
1.57809e-06
-6.04159e-08
1.60823e-06
-5.89273e-08
1.63765e-06
-5.74829e-08
1.66638e-06
-5.60815e-08
1.69444e-06
-5.4721e-08
1.72185e-06
-5.33989e-08
1.74862e-06
-5.21137e-08
1.77477e-06
-5.08647e-08
1.80032e-06
-4.96511e-08
1.82529e-06
-4.84714e-08
1.8497e-06
-4.73245e-08
1.87356e-06
-4.62107e-08
1.89689e-06
-4.51313e-08
1.9197e-06
-4.40851e-08
1.94201e-06
-4.30681e-08
1.96384e-06
-4.20784e-08
1.98519e-06
-4.11173e-08
2.00609e-06
-4.01857e-08
2.02655e-06
-3.92824e-08
2.04658e-06
-3.84056e-08
2.06619e-06
-3.75541e-08
2.0854e-06
-3.67265e-08
2.10421e-06
-3.59187e-08
2.12265e-06
-3.51259e-08
2.1407e-06
-3.43463e-08
2.15838e-06
-3.35725e-08
2.17568e-06
-3.27901e-08
2.1926e-06
-3.19827e-08
2.20912e-06
-3.11268e-08
2.22523e-06
-3.01945e-08
2.2409e-06
-2.91605e-08
2.25607e-06
-2.80068e-08
2.27068e-06
-2.67033e-08
2.28461e-06
-2.5184e-08
2.29768e-06
-2.33351e-08
2.30968e-06
-2.09857e-08
2.32022e-06
-1.78635e-08
2.32873e-06
-1.35172e-08
2.33416e-06
-7.18644e-09
2.33484e-06
2.63242e-09
2.32776e-06
1.96257e-08
2.30721e-06
5.27722e-08
1.25852e-07
2.27372e-06
-1.33447e-07
2.61731e-07
-2.65727e-07
3.29378e-07
-3.9613e-07
3.68335e-07
-5.27672e-07
3.95099e-07
-6.61436e-07
4.13854e-07
-7.9724e-07
4.27046e-07
-9.34513e-07
4.36138e-07
-1.07264e-06
4.42015e-07
-1.21104e-06
4.45271e-07
-1.34921e-06
4.46352e-07
-1.4867e-06
4.45617e-07
-1.62314e-06
4.43373e-07
-1.75823e-06
4.3988e-07
-1.89172e-06
4.35369e-07
-2.02341e-06
4.30036e-07
-2.15316e-06
4.24056e-07
-2.28085e-06
4.17576e-07
-2.40642e-06
4.10724e-07
-2.52982e-06
4.03606e-07
-2.651e-06
3.96312e-07
-2.76998e-06
3.88915e-07
-2.88674e-06
3.81471e-07
-3.00131e-06
3.74026e-07
-3.11368e-06
3.66612e-07
-3.2239e-06
3.5925e-07
-3.33198e-06
3.51953e-07
-3.43793e-06
3.44726e-07
-3.54178e-06
3.37566e-07
-3.64353e-06
3.30462e-07
-3.7432e-06
3.23402e-07
-3.84078e-06
3.16365e-07
-3.93626e-06
3.09328e-07
-4.02962e-06
3.02261e-07
-4.12083e-06
2.95135e-07
-4.20984e-06
2.87915e-07
-4.29662e-06
2.80562e-07
-4.38108e-06
2.73039e-07
-4.46315e-06
2.65302e-07
-4.54273e-06
2.57306e-07
-4.61972e-06
2.49002e-07
-4.69399e-06
2.40339e-07
-4.76541e-06
2.31266e-07
-4.8338e-06
2.21725e-07
-4.899e-06
2.11658e-07
-4.9608e-06
2.01003e-07
-5.01899e-06
1.89696e-07
-5.07333e-06
1.77668e-07
-5.12355e-06
1.64849e-07
-5.16939e-06
1.51167e-07
-5.21052e-06
1.36547e-07
-5.24662e-06
1.20913e-07
-5.27733e-06
1.04193e-07
-5.30228e-06
8.63102e-08
-5.32108e-06
6.7193e-08
-5.33331e-06
4.6773e-08
-5.33855e-06
2.4992e-08
-5.33637e-06
1.80572e-09
-5.32634e-06
-2.28158e-08
-5.30796e-06
-4.88741e-08
-5.2808e-06
-7.63275e-08
-5.24442e-06
-1.05083e-07
-5.19843e-06
-1.34998e-07
-5.14252e-06
-1.65879e-07
-5.07643e-06
-1.97478e-07
-5.00001e-06
-2.29495e-07
-4.91323e-06
-2.61582e-07
-4.81618e-06
-2.93348e-07
-4.7091e-06
-3.24371e-07
-4.59237e-06
-3.54215e-07
-4.4665e-06
-3.82443e-07
-4.33217e-06
-4.08643e-07
-4.19017e-06
-4.32443e-07
-4.04138e-06
-4.53529e-07
-3.88679e-06
-4.71657e-07
-3.72742e-06
-4.86663e-07
-3.56432e-06
-4.98462e-07
-3.39854e-06
-5.07051e-07
-3.23111e-06
-5.12504e-07
-3.063e-06
-5.14958e-07
-2.89512e-06
-5.14606e-07
-2.72829e-06
-5.11682e-07
-2.56327e-06
-5.0645e-07
-2.40069e-06
-4.99193e-07
-2.2411e-06
-4.90202e-07
-2.08497e-06
-4.79757e-07
-1.93266e-06
-4.68133e-07
-1.78446e-06
-4.55595e-07
-1.64058e-06
-4.42385e-07
-1.50114e-06
-4.28709e-07
-1.36624e-06
-4.14754e-07
-1.23589e-06
-4.00708e-07
-1.11006e-06
-3.86724e-07
-9.88708e-07
-3.72885e-07
-8.71739e-07
-3.59302e-07
-7.59026e-07
-3.46095e-07
-6.50422e-07
-3.333e-07
-5.4581e-07
-3.20902e-07
-4.4502e-07
-3.09031e-07
-3.47826e-07
-2.97761e-07
-2.54111e-07
-2.86889e-07
-1.63731e-07
-2.76569e-07
-7.64002e-08
-2.66981e-07
8.08456e-09
-2.57818e-07
8.95336e-08
-2.48913e-07
1.67825e-07
-2.40405e-07
2.43261e-07
-2.32304e-07
3.16056e-07
-2.24445e-07
3.86303e-07
-2.16921e-07
4.54023e-07
-2.09781e-07
5.19519e-07
-2.02678e-07
5.83071e-07
-1.95577e-07
6.44697e-07
-1.88769e-07
7.04446e-07
-1.82316e-07
7.62373e-07
-1.76231e-07
8.18545e-07
-1.70499e-07
8.73034e-07
-1.65093e-07
9.25913e-07
-1.59984e-07
9.77254e-07
-1.55144e-07
1.02713e-06
-1.50546e-07
1.07559e-06
-1.46168e-07
1.12271e-06
-1.41991e-07
1.16855e-06
-1.37999e-07
1.21314e-06
-1.34175e-07
1.25655e-06
-1.30509e-07
1.29882e-06
-1.26988e-07
1.33999e-06
-1.23602e-07
1.3801e-06
-1.20343e-07
1.41918e-06
-1.17202e-07
1.45728e-06
-1.1417e-07
1.49442e-06
-1.11241e-07
1.53064e-06
-1.0841e-07
1.56596e-06
-1.0567e-07
1.60042e-06
-1.03019e-07
1.63405e-06
-1.00452e-07
1.66686e-06
-9.79649e-08
1.69889e-06
-9.55536e-08
1.73016e-06
-9.32147e-08
1.76069e-06
-9.09452e-08
1.7905e-06
-8.8742e-08
1.81961e-06
-8.66023e-08
1.84805e-06
-8.45237e-08
1.87583e-06
-8.2505e-08
1.90298e-06
-8.0545e-08
1.92951e-06
-7.86424e-08
1.95544e-06
-7.67948e-08
1.98078e-06
-7.5e-08
2.00557e-06
-7.32558e-08
2.0298e-06
-7.15616e-08
2.05351e-06
-6.99178e-08
2.0767e-06
-6.83246e-08
2.0994e-06
-6.678e-08
2.12161e-06
-6.52798e-08
2.14335e-06
-6.38222e-08
2.16464e-06
-6.24085e-08
2.1855e-06
-6.10395e-08
2.20593e-06
-5.9714e-08
2.22595e-06
-5.84288e-08
2.24558e-06
-5.71807e-08
2.26482e-06
-5.59683e-08
2.28369e-06
-5.4788e-08
2.3022e-06
-5.36332e-08
2.32035e-06
-5.24985e-08
2.33815e-06
-5.13741e-08
2.3556e-06
-5.02429e-08
2.3727e-06
-4.90851e-08
2.38945e-06
-4.78738e-08
2.40583e-06
-4.65763e-08
2.42183e-06
-4.51586e-08
2.43741e-06
-4.35817e-08
2.45249e-06
-4.17862e-08
2.46699e-06
-3.96753e-08
2.48075e-06
-3.70926e-08
2.49357e-06
-3.37991e-08
2.50512e-06
-2.94191e-08
2.51494e-06
-2.33349e-08
2.52224e-06
-1.44895e-08
2.5259e-06
-1.02833e-09
2.52441e-06
2.11185e-08
2.51658e-06
6.06018e-08
1.33896e-07
2.50853e-06
-1.31169e-07
3.929e-07
-2.63354e-07
4.61563e-07
-3.92867e-07
4.97848e-07
-5.20948e-07
5.2318e-07
-6.48491e-07
5.41396e-07
-7.75725e-07
5.5428e-07
-9.02573e-07
5.62987e-07
-1.02886e-06
5.683e-07
-1.15437e-06
5.70787e-07
-1.27892e-06
5.70899e-07
-1.40231e-06
5.69014e-07
-1.5244e-06
5.65459e-07
-1.64504e-06
5.60523e-07
-1.76414e-06
5.54461e-07
-1.88159e-06
5.47495e-07
-1.99736e-06
5.39821e-07
-2.11139e-06
5.31607e-07
-2.22366e-06
5.22995e-07
-2.33416e-06
5.14106e-07
-2.44289e-06
5.0504e-07
-2.54985e-06
4.95876e-07
-2.65506e-06
4.86679e-07
-2.75853e-06
4.77494e-07
-2.86027e-06
4.68356e-07
-2.96031e-06
4.59286e-07
-3.05865e-06
4.50296e-07
-3.15531e-06
4.41385e-07
-3.25029e-06
4.32547e-07
-3.34359e-06
4.23767e-07
-3.43522e-06
4.15025e-07
-3.52514e-06
4.06292e-07
-3.61335e-06
3.97537e-07
-3.69981e-06
3.88724e-07
-3.78449e-06
3.7981e-07
-3.86733e-06
3.70752e-07
-3.94827e-06
3.61502e-07
-4.02723e-06
3.52007e-07
-4.10415e-06
3.42213e-07
-4.1789e-06
3.32061e-07
-4.25139e-06
3.21488e-07
-4.32148e-06
3.1043e-07
-4.38903e-06
2.98817e-07
-4.45388e-06
2.86576e-07
-4.51586e-06
2.73632e-07
-4.57476e-06
2.59903e-07
-4.63037e-06
2.45305e-07
-4.68244e-06
2.29748e-07
-4.73074e-06
2.13141e-07
-4.77496e-06
1.95388e-07
-4.8148e-06
1.76392e-07
-4.84994e-06
1.56053e-07
-4.88003e-06
1.34273e-07
-4.90467e-06
1.10953e-07
-4.92348e-06
8.59999e-08
-4.93604e-06
5.93281e-08
-4.94191e-06
3.08674e-08
-4.94068e-06
5.68348e-10
-4.93187e-06
-3.16248e-08
-4.91501e-06
-6.57375e-08
-4.88961e-06
-1.0172e-07
-4.85524e-06
-1.3946e-07
-4.81146e-06
-1.78776e-07
-4.75792e-06
-2.19419e-07
-4.69433e-06
-2.61066e-07
-4.62051e-06
-3.03319e-07
-4.53638e-06
-3.45713e-07
-4.44201e-06
-3.87718e-07
-4.33762e-06
-4.28763e-07
-4.22358e-06
-4.68251e-07
-4.10043e-06
-5.05591e-07
-3.96886e-06
-5.40219e-07
-3.82967e-06
-5.7163e-07
-3.6838e-06
-5.99401e-07
-3.53225e-06
-6.23206e-07
-3.37608e-06
-6.4283e-07
-3.21637e-06
-6.58169e-07
-3.05419e-06
-6.69228e-07
-2.89058e-06
-6.76116e-07
-2.7265e-06
-6.79035e-07
-2.56286e-06
-6.78251e-07
-2.40046e-06
-6.74083e-07
-2.24002e-06
-6.66888e-07
-2.08217e-06
-6.57052e-07
-1.92741e-06
-6.44965e-07
-1.77616e-06
-6.31002e-07
-1.62878e-06
-6.15516e-07
-1.48551e-06
-5.98865e-07
-1.34652e-06
-5.81375e-07
-1.21191e-06
-5.63309e-07
-1.08177e-06
-5.44897e-07
-9.56081e-07
-5.26392e-07
-8.34789e-07
-5.08014e-07
-7.17828e-07
-4.89845e-07
-6.05124e-07
-4.72007e-07
-4.96533e-07
-4.54687e-07
-3.91872e-07
-4.37961e-07
-2.91039e-07
-4.21733e-07
-1.93919e-07
-4.06149e-07
-1.0024e-07
-3.91437e-07
-9.74225e-09
-3.77381e-07
7.74645e-08
-3.63771e-07
1.61249e-07
-3.50762e-07
2.41867e-07
-3.38433e-07
3.19553e-07
-3.26597e-07
3.94425e-07
-3.15276e-07
4.66606e-07
-3.04484e-07
5.36292e-07
-2.94128e-07
6.03599e-07
-2.84225e-07
6.68584e-07
-2.74765e-07
7.31483e-07
-2.65577e-07
7.92526e-07
-2.56619e-07
8.51774e-07
-2.48016e-07