/*--------------------------------*- C++ -*----------------------------------*\
| =========                 |                                                 |
| \\      /  F ield         | OpenFOAM: The Open Source CFD Toolbox           |
|  \\    /   O peration     | Version:  2.2.x                                 |
|   \\  /    A nd           | Web:      www.OpenFOAM.org                      |
|    \\/     M anipulation  |                                                 |
\*---------------------------------------------------------------------------*/
FoamFile
{
    version     2.0;
    format      ascii;
    class       volVectorField;
    location    "150";
    object      U;
}
// * * * * * * * * * * * * * * * * * * * * * * * * * * * * * * * * * * * * * //

dimensions      [0 1 -1 0 0 0 0];

internalField   nonuniform List<vector> 
12225
(
(9.83957 -1.23839 0)
(9.73798 -0.731414 0)
(9.53517 -0.467197 0)
(9.31983 -0.307192 0)
(9.11901 -0.205654 0)
(8.93287 -0.139191 0)
(8.75963 -0.0944326 0)
(8.59845 -0.0636126 0)
(8.44848 -0.0420243 0)
(8.30866 -0.0266838 0)
(8.1779 -0.0156391 0)
(8.05515 -0.00758112 0)
(7.93937 -0.00160892 0)
(7.82948 0.002924 0)
(7.72422 0.00653437 0)
(7.62183 0.00986622 0)
(7.5151 0.014747 0)
(7.4176 -0.00978712 0)
(10.0333 0.447511 0)
(10.0218 0.427198 0)
(9.98653 0.340649 0)
(9.93956 0.271554 0)
(9.89113 0.218567 0)
(9.84048 0.178203 0)
(9.78682 0.14792 0)
(9.73078 0.125261 0)
(9.67314 0.108219 0)
(9.61443 0.095323 0)
(9.55501 0.0855307 0)
(9.49508 0.07811 0)
(9.43468 0.0725628 0)
(9.37367 0.0685913 0)
(9.31165 0.0661295 0)
(9.24793 0.06562 0)
(9.18277 0.0689689 0)
(9.11747 0.090308 0)
(9.99277 0.0270015 0)
(10.0015 -0.008275 0)
(10.0161 -0.0267967 0)
(10.0215 -0.0213348 0)
(10.0227 -0.00959495 0)
(10.0206 0.00216181 0)
(10.015 0.0127604 0)
(10.0064 0.0219155 0)
(9.99534 0.029621 0)
(9.98219 0.036057 0)
(9.96712 0.0414839 0)
(9.95024 0.0461829 0)
(9.93152 0.0504476 0)
(9.91087 0.0546146 0)
(9.88804 0.0591468 0)
(9.86283 0.0648196 0)
(9.83584 0.0727616 0)
(9.80568 0.0818176 0)
(9.99984 0.0199898 0)
(10.0116 0.0440397 0)
(10.0291 0.0567591 0)
(10.038 0.0668095 0)
(10.0433 0.072688 0)
(10.0471 0.0750157 0)
(10.0491 0.0754958 0)
(10.0495 0.0751897 0)
(10.0486 0.0746254 0)
(10.0465 0.0741069 0)
(10.0431 0.0738405 0)
(10.0385 0.0739896 0)
(10.0326 0.07472 0)
(10.0252 0.0762511 0)
(10.0162 0.0789233 0)
(10.0057 0.0832674 0)
(9.99429 0.0899009 0)
(9.98151 0.0983233 0)
(10.0021 0.0191038 0)
(10.0136 0.0417267 0)
(10.0284 0.0482691 0)
(10.0373 0.0512419 0)
(10.0435 0.0533196 0)
(10.0489 0.0546295 0)
(10.0531 0.0557179 0)
(10.0561 0.0569186 0)
(10.058 0.0583188 0)
(10.0588 0.0599506 0)
(10.0587 0.0618671 0)
(10.0575 0.0641579 0)
(10.0552 0.0669621 0)
(10.0517 0.0704915 0)
(10.0471 0.0750579 0)
(10.0415 0.0810732 0)
(10.0353 0.0889321 0)
(10.0283 0.0983389 0)
(10.0024 0.019477 0)
(10.0124 0.0381697 0)
(10.0252 0.0450514 0)
(10.0342 0.0491021 0)
(10.041 0.0526489 0)
(10.0469 0.0554148 0)
(10.0517 0.0576282 0)
(10.0554 0.0596058 0)
(10.0582 0.0615249 0)
(10.06 0.0635102 0)
(10.0609 0.0656916 0)
(10.0609 0.0682183 0)
(10.06 0.0712704 0)
(10.0582 0.0750746 0)
(10.0555 0.0799144 0)
(10.0521 0.086112 0)
(10.0484 0.0939473 0)
(10.0444 0.103307 0)
(10.002 0.0173203 0)
(10.0104 0.0331828 0)
(10.0215 0.0409708 0)
(10.0303 0.0458369 0)
(10.0373 0.0497842 0)
(10.0433 0.0528383 0)
(10.0483 0.055275 0)
(10.0524 0.057451 0)
(10.0555 0.0595929 0)
(10.0579 0.0618536 0)
(10.0594 0.0643744 0)
(10.0601 0.0673056 0)
(10.06 0.070818 0)
(10.0592 0.0751123 0)
(10.0578 0.080419 0)
(10.0559 0.0869763 0)
(10.0538 0.0949731 0)
(10.0518 0.10432 0)
(10.0017 0.0154988 0)
(10.0088 0.029789 0)
(10.0186 0.0380159 0)
(10.0269 0.0432974 0)
(10.0338 0.0474589 0)
(10.0397 0.0507639 0)
(10.0449 0.0534934 0)
(10.0491 0.0559754 0)
(10.0525 0.0584338 0)
(10.0552 0.061025 0)
(10.0571 0.0638911 0)
(10.0582 0.0671796 0)
(10.0588 0.0710514 0)
(10.0587 0.0756845 0)
(10.0581 0.0812698 0)
(10.0572 0.0879902 0)
(10.0563 0.0959794 0)
(10.0556 0.105145 0)
(10.0015 0.0140349 0)
(10.0076 0.0270684 0)
(10.0162 0.0353179 0)
(10.024 0.0408305 0)
(10.0306 0.0451671 0)
(10.0365 0.0486858 0)
(10.0416 0.0516617 0)
(10.046 0.0543961 0)
(10.0496 0.0571088 0)
(10.0525 0.0599607 0)
(10.0547 0.0630952 0)
(10.0563 0.0666565 0)
(10.0573 0.0707943 0)
(10.0578 0.0756653 0)
(10.058 0.0814269 0)
(10.058 0.088219 0)
(10.058 0.0961315 0)
(10.0583 0.105051 0)
(10.0013 0.0126122 0)
(10.0064 0.0243804 0)
(10.0139 0.0324524 0)
(10.021 0.0381107 0)
(10.0274 0.0426004 0)
(10.0331 0.0463182 0)
(10.0382 0.0495317 0)
(10.0426 0.0525162 0)
(10.0464 0.0554841 0)
(10.0495 0.058597 0)
(10.0521 0.0619963 0)
(10.0541 0.0658185 0)
(10.0556 0.070198 0)
(10.0568 0.075267 0)
(10.0577 0.081149 0)
(10.0585 0.0879436 0)
(10.0595 0.0957005 0)
(10.0609 0.104288 0)
(10.0012 0.0112067 0)
(10.0054 0.0217222 0)
(10.0118 0.0294665 0)
(10.0182 0.0351643 0)
(10.0242 0.0397507 0)
(10.0297 0.0436255 0)
(10.0347 0.0470466 0)
(10.0392 0.0502605 0)
(10.0431 0.0534678 0)
(10.0465 0.056825 0)
(10.0494 0.0604668 0)
(10.0518 0.064517 0)
(10.0539 0.0690912 0)
(10.0558 0.0742951 0)
(10.0575 0.0802188 0)
(10.0592 0.0869252 0)
(10.0611 0.0944295 0)
(10.0635 0.102586 0)
(10.001 0.00982858 0)
(10.0045 0.0191258 0)
(10.0099 0.0263986 0)
(10.0157 0.0320085 0)
(10.0213 0.036616 0)
(10.0265 0.04059 0)
(10.0314 0.0441713 0)
(10.0359 0.0475763 0)
(10.0399 0.0509876 0)
(10.0436 0.0545508 0)
(10.0469 0.058389 0)
(10.0498 0.0626095 0)
(10.0525 0.0673061 0)
(10.055 0.0725578 0)
(10.0575 0.0784234 0)
(10.0601 0.0849345 0)
(10.0629 0.0920793 0)
(10.0663 0.0997052 0)
(10.0008 0.00848823 0)
(10.0037 0.0165992 0)
(10.0083 0.0232665 0)
(10.0135 0.0286471 0)
(10.0187 0.0331793 0)
(10.0237 0.0371738 0)
(10.0285 0.0408452 0)
(10.033 0.044379 0)
(10.0372 0.0479338 0)
(10.0411 0.0516389 0)
(10.0448 0.0556004 0)
(10.0482 0.059906 0)
(10.0515 0.0646269 0)
(10.0548 0.069816 0)
(10.0581 0.0755053 0)
(10.0615 0.0817013 0)
(10.0652 0.0883736 0)
(10.0694 0.0953712 0)
(10.0007 0.00718329 0)
(10.0031 0.0141248 0)
(10.0071 0.0200668 0)
(10.0117 0.0250682 0)
(10.0165 0.029404 0)
(10.0213 0.0333141 0)
(10.0261 0.0369786 0)
(10.0306 0.0405501 0)
(10.0351 0.0441592 0)
(10.0393 0.0479131 0)
(10.0434 0.0518968 0)
(10.0473 0.0561766 0)
(10.0513 0.0608007 0)
(10.0552 0.0657991 0)
(10.0592 0.0711823 0)
(10.0634 0.076939 0)
(10.0679 0.0830281 0)
(10.0729 0.0893077 0)
(10.0006 0.00589554 0)
(10.0027 0.0116591 0)
(10.0061 0.0167621 0)
(10.0103 0.0212271 0)
(10.0149 0.02522 0)
(10.0195 0.0289117 0)
(10.0243 0.0324415 0)
(10.029 0.0359273 0)
(10.0336 0.0394689 0)
(10.0382 0.0431472 0)
(10.0427 0.0470239 0)
(10.0472 0.0511428 0)
(10.0518 0.0555313 0)
(10.0564 0.0602005 0)
(10.0611 0.065145 0)
(10.066 0.0703421 0)
(10.0711 0.0757471 0)
(10.0767 0.0812333 0)
(10.0005 0.0045875 0)
(10.0024 0.00912575 0)
(10.0055 0.0132662 0)
(10.0094 0.0170264 0)
(10.0138 0.0205054 0)
(10.0184 0.0238144 0)
(10.0232 0.0270506 0)
(10.0281 0.0302955 0)
(10.033 0.0336171 0)
(10.038 0.0370679 0)
(10.043 0.0406856 0)
(10.048 0.044493 0)
(10.0531 0.0484992 0)
(10.0583 0.0527007 0)
(10.0636 0.0570813 0)
(10.0691 0.0616128 0)
(10.0748 0.0662519 0)
(10.0809 0.0708902 0)
(10.0005 0.00319892 0)
(10.0023 0.00640757 0)
(10.0052 0.00943169 0)
(10.009 0.0122981 0)
(10.0134 0.0150657 0)
(10.0181 0.0177982 0)
(10.023 0.0205513 0)
(10.0282 0.023371 0)
(10.0334 0.026293 0)
(10.0388 0.0293425 0)
(10.0442 0.0325339 0)
(10.0497 0.0358711 0)
(10.0553 0.0393487 0)
(10.061 0.042952 0)
(10.0669 0.0466585 0)
(10.0729 0.0504386 0)
(10.079 0.0542531 0)
(10.0854 0.0580141 0)
(10.0005 0.00174173 0)
(10.0023 0.00353376 0)
(10.0053 0.00532266 0)
(10.0091 0.00715112 0)
(10.0136 0.00905261 0)
(10.0185 0.0110517 0)
(10.0237 0.0131663 0)
(10.0292 0.0154096 0)
(10.0348 0.0177884 0)
(10.0405 0.0203038 0)
(10.0464 0.0229502 0)
(10.0523 0.0257167 0)
(10.0583 0.0285867 0)
(10.0644 0.0315385 0)
(10.0706 0.0345466 0)
(10.0769 0.0375823 0)
(10.0833 0.0406117 0)
(10.09 0.0435652 0)
(10.0005 0.000313697 0)
(10.0024 0.000703006 0)
(10.0056 0.00125132 0)
(10.0097 0.00202539 0)
(10.0144 0.00303735 0)
(10.0196 0.00427302 0)
(10.0252 0.0057157 0)
(10.0309 0.0073497 0)
(10.0369 0.00915784 0)
(10.043 0.0111211 0)
(10.0491 0.0132188 0)
(10.0554 0.0154285 0)
(10.0618 0.0177259 0)
(10.0682 0.0200849 0)
(10.0746 0.0224784 0)
(10.0811 0.0248788 0)
(10.0877 0.0272565 0)
(10.0944 0.0295552 0)
(10.0006 -0.0010502 0)
(10.0026 -0.00201642 0)
(10.006 -0.00266067 0)
(10.0105 -0.00287805 0)
(10.0156 -0.00268962 0)
(10.0212 -0.00215708 0)
(10.0271 -0.00133056 0)
(10.0332 -0.00025061 0)
(10.0394 0.00104478 0)
(10.0458 0.00251975 0)
(10.0523 0.00414131 0)
(10.0588 0.00587788 0)
(10.0654 0.00769941 0)
(10.072 0.00957685 0)
(10.0786 0.0114824 0)
(10.0853 0.0133895 0)
(10.0919 0.015272 0)
(10.0987 0.0170834 0)
(10.0006 -0.00237103 0)
(10.0028 -0.00469192 0)
(10.0067 -0.00650014 0)
(10.0116 -0.00763045 0)
(10.0172 -0.00817808 0)
(10.0231 -0.00827199 0)
(10.0294 -0.00799301 0)
(10.0358 -0.00740317 0)
(10.0424 -0.00656039 0)
(10.049 -0.00551559 0)
(10.0558 -0.00431154 0)
(10.0625 -0.00298508 0)
(10.0693 -0.00157005 0)
(10.076 -9.74872e-05 0)
(10.0828 0.00140414 0)
(10.0895 0.00290868 0)
(10.0962 0.00439067 0)
(10.103 0.00580832 0)
(10.0006 -0.00363734 0)
(10.0031 -0.00737148 0)
(10.0075 -0.0103278 0)
(10.013 -0.012261 0)
(10.019 -0.0134282 0)
(10.0254 -0.014046 0)
(10.032 -0.0142172 0)
(10.0387 -0.0140228 0)
(10.0456 -0.0135404 0)
(10.0525 -0.0128336 0)
(10.0594 -0.0119527 0)
(10.0663 -0.0109402 0)
(10.0732 -0.00983301 0)
(10.0801 -0.00866363 0)
(10.0869 -0.00746091 0)
(10.0936 -0.00625091 0)
(10.1003 -0.00505808 0)
(10.1071 -0.00391802 0)
(10.0006 -0.00480698 0)
(10.0033 -0.0101141 0)
(10.0083 -0.0142171 0)
(10.0146 -0.0168458 0)
(10.0211 -0.0185541 0)
(10.0279 -0.0196359 0)
(10.0348 -0.0202019 0)
(10.0418 -0.0203609 0)
(10.0489 -0.0202126 0)
(10.056 -0.0198284 0)
(10.063 -0.0192604 0)
(10.0701 -0.0185512 0)
(10.0771 -0.0177369 0)
(10.084 -0.0168491 0)
(10.0908 -0.0159162 0)
(10.0976 -0.0149655 0)
(10.1042 -0.0140249 0)
(10.111 -0.0131363 0)
(10.0004 -0.00580017 0)
(10.0032 -0.0129581 0)
(10.0092 -0.0179899 0)
(10.0162 -0.0210237 0)
(10.0232 -0.0231093 0)
(10.0303 -0.0245024 0)
(10.0375 -0.0252811 0)
(10.0447 -0.0255996 0)
(10.0519 -0.0255946 0)
(10.0591 -0.0253527 0)
(10.0662 -0.0249326 0)
(10.0733 -0.0243796 0)
(10.0803 -0.0237294 0)
(10.0872 -0.0230112 0)
(10.094 -0.0222503 0)
(10.1007 -0.0214713 0)
(10.1073 -0.0206988 0)
(10.1139 -0.0199674 0)
(9.99994 -0.00656842 0)
(10.0029 -0.0167888 0)
(10.0101 -0.0226437 0)
(10.0178 -0.0258475 0)
(10.025 -0.0283779 0)
(10.0324 -0.0303069 0)
(10.0398 -0.0315865 0)
(10.0471 -0.0323576 0)
(10.0543 -0.0327485 0)
(10.0615 -0.03284 0)
(10.0685 -0.0326937 0)
(10.0755 -0.0323616 0)
(10.0825 -0.0318868 0)
(10.0893 -0.0313041 0)
(10.096 -0.0306439 0)
(10.1025 -0.0299362 0)
(10.109 -0.0292175 0)
(10.1155 -0.0285509 0)
(9.99853 -0.00451907 0)
(10.0013 -0.0192532 0)
(10.0102 -0.0255216 0)
(10.0184 -0.0276633 0)
(10.0256 -0.0290215 0)
(10.0329 -0.0299098 0)
(10.0403 -0.0304662 0)
(10.0476 -0.0308732 0)
(10.0548 -0.0311938 0)
(10.0618 -0.031428 0)
(10.0688 -0.0315715 0)
(10.0757 -0.0316248 0)
(10.0824 -0.031591 0)
(10.089 -0.0314738 0)
(10.0955 -0.0312789 0)
(10.1018 -0.0310152 0)
(10.1079 -0.0306991 0)
(10.114 -0.0303711 0)
(9.99491 -0.00282985 0)
(9.99639 -0.0249307 0)
(10.0086 -0.0383172 0)
(10.0181 -0.0471684 0)
(10.0255 -0.0526427 0)
(10.0325 -0.0551649 0)
(10.0393 -0.0558365 0)
(10.0459 -0.0555102 0)
(10.0522 -0.0546336 0)
(10.0584 -0.0534485 0)
(10.0645 -0.0521042 0)
(10.0705 -0.0506938 0)
(10.0763 -0.0492711 0)
(10.0821 -0.0478644 0)
(10.0876 -0.046484 0)
(10.0931 -0.0451273 0)
(10.0983 -0.0437925 0)
(10.1036 -0.0424986 0)
(9.9853 0.00600471 0)
(9.98242 0.0253876 0)
(9.99542 0.0373177 0)
(10.006 0.03324 0)
(10.0146 0.0237141 0)
(10.022 0.0140143 0)
(10.0282 0.00519233 0)
(10.0332 -0.00255752 0)
(10.0374 -0.0091675 0)
(10.0409 -0.0146817 0)
(10.0439 -0.0192155 0)
(10.0465 -0.0229032 0)
(10.0488 -0.025871 0)
(10.0508 -0.0282282 0)
(10.0526 -0.0300614 0)
(10.0542 -0.0314251 0)
(10.0555 -0.0323377 0)
(10.0564 -0.0327006 0)
(10.0138 -0.317198 0)
(10.0107 -0.326033 0)
(10.0003 -0.271079 0)
(9.98524 -0.22429 0)
(9.97213 -0.187406 0)
(9.95982 -0.15791 0)
(9.94664 -0.134661 0)
(9.93231 -0.116463 0)
(9.91703 -0.102146 0)
(9.90099 -0.0907797 0)
(9.88439 -0.0816702 0)
(9.8674 -0.0742979 0)
(9.8502 -0.0682697 0)
(9.83294 -0.063285 0)
(9.81577 -0.0591056 0)
(9.79881 -0.0555223 0)
(9.78223 -0.0523073 0)
(9.76553 -0.0488401 0)
(9.95423 0.913114 0)
(9.95461 0.561076 0)
(9.86759 0.375544 0)
(9.75531 0.258711 0)
(9.64261 0.180737 0)
(9.53315 0.127246 0)
(9.42719 0.0895471 0)
(9.3255 0.0624091 0)
(9.22871 0.042591 0)
(9.13705 0.0279713 0)
(9.05053 0.0171054 0)
(8.96902 0.00898696 0)
(8.89238 0.00290232 0)
(8.82041 -0.00166156 0)
(8.75289 -0.00507532 0)
(8.68963 -0.00759985 0)
(8.63063 -0.00938114 0)
(8.57417 -0.01025 0)
(0.011854 -0.0412521 0)
(-0.0313404 0.0769779 0)
(-0.12262 0.137054 0)
(-0.237675 0.158804 0)
(-0.362266 0.165712 0)
(-0.492597 0.16769 0)
(-0.626967 0.167904 -3.26778e-20)
(-0.764101 0.167147 2.90543e-20)
(-0.903048 0.165696 0)
(-1.04305 0.163697 2.44233e-20)
(-1.18347 0.161257 0)
(-1.32377 0.158462 0)
(-1.46351 0.155385 0)
(-1.60231 0.152092 -2.02328e-20)
(-1.73985 0.14864 0)
(-1.87588 0.145077 0)
(-2.01019 0.141448 1.9057e-20)
(-2.14261 0.137789 0)
(-2.27304 0.134131 0)
(-2.40137 0.1305 0)
(-2.52754 0.126917 -1.85993e-20)
(-2.65151 0.123397 0)
(-2.77327 0.119952 -1.86209e-20)
(-2.89281 0.11659 0)
(-3.01013 0.113315 0)
(-3.12525 0.110128 -1.88201e-20)
(-3.2382 0.10703 0)
(-3.34898 0.104017 1.902e-20)
(-3.45763 0.101084 0)
(-3.56416 0.0982252 -1.92494e-20)
(-3.66859 0.0954333 0)
(-3.77092 0.0926998 0)
(-3.87116 0.0900155 0)
(-3.96931 0.0873704 0)
(-4.06534 0.0847538 0)
(-4.15923 0.0821542 1.9983e-20)
(-4.25095 0.0795599 0)
(-4.34043 0.0769585 -4.04193e-20)
(-4.42761 0.0743371 0)
(-4.51241 0.071682 4.08259e-20)
(-4.59473 0.0689788 0)
(-4.67447 0.0662128 0)
(-4.75148 0.0633693 -4.13104e-20)
(-4.82562 0.0604336 0)
(-4.89672 0.0573907 -4.15218e-20)
(-4.96458 0.0542251 4.1586e-20)
(-5.02899 0.0509207 0)
(-5.08971 0.0474604 4.16156e-20)
(-5.14649 0.0438276 4.15744e-20)
(-5.19903 0.0400058 0)
(-5.24704 0.0359786 0)
(-5.29015 0.0317292 0)
(-5.32798 0.0272402 0)
(-5.36016 0.022493 0)
(-5.38629 0.0174655 -4.02825e-20)
(-5.40599 0.0121314 0)
(-5.41874 0.00646937 3.934e-20)
(-5.42393 0.000482085 0)
(-5.42108 -0.00580641 0)
(-5.40973 -0.0123768 -3.71166e-20)
(-5.38941 -0.0192151 0)
(-5.3597 -0.0262837 3.50682e-20)
(-5.32024 -0.033534 0)
(-5.27072 -0.0409062 0)
(-5.21094 -0.0483299 0)
(-5.14079 -0.0557249 -2.94059e-20)
(-5.0603 -0.0630034 0)
(-4.9696 -0.0700722 0)
(-4.869 -0.0768359 -2.36316e-20)
(-4.75892 -0.0832009 0)
(-4.63993 -0.0890792 -1.90135e-20)
(-4.51273 -0.0943929 0)
(-4.37812 -0.0990772 0)
(-4.23699 -0.103083 0)
(-4.09033 -0.10638 7.92467e-21)
(-3.93912 -0.108954 0)
(-3.78439 -0.11081 0)
(-3.62716 -0.111968 -1.99987e-21)
(-3.4684 -0.112464 -5.61822e-21)
(-3.30905 -0.112344 0)
(-3.14995 -0.111664 -1.33407e-20)
(-2.9919 -0.110486 0)
(-2.83559 -0.108877 -4.35104e-20)
(-2.68163 -0.106904 0)
(-2.53053 -0.104632 -6.18835e-20)
(-2.38273 -0.102123 0)
(-2.23856 -0.0994382 8.20341e-20)
(-2.09829 -0.0966299 0)
(-1.96211 -0.0937445 0)
(-1.83014 -0.0908257 0)
(-1.70246 -0.0879129 -1.29059e-19)
(-1.57907 -0.0850362 0)
(-1.45995 -0.082219 1.56932e-19)
(-1.34504 -0.0794875 0)
(-1.23426 -0.0768604 -1.88662e-19)
(-1.12748 -0.0743429 -2.06283e-19)
(-1.02458 -0.0719498 -2.25284e-19)
(-0.925415 -0.0697034 0)
(-0.829819 -0.0675942 0)
(-0.737655 -0.0656165 0)
(-0.648735 -0.0638209 0)
(-0.562887 -0.0621864 0)
(-0.479966 -0.0606933 0)
(-0.399746 -0.0594373 0)
(-0.322182 -0.058336 0)
(-0.246942 -0.0574055 5.09031e-19)
(-0.173799 -0.0568222 5.64128e-19)
(-0.103008 -0.0564828 0)
(-0.0352776 -0.0559987 0)
(0.0345466 -0.0536176 0)
(0.0977656 -0.0499036 6.68985e-19)
(0.159741 -0.046448 0)
(0.21956 -0.0434045 0)
(0.277279 -0.0407126 0)
(0.333072 -0.0383141 0)
(0.387095 -0.0361626 -5.13857e-19)
(0.439477 -0.0342209 0)
(0.490323 -0.0324564 0)
(0.539722 -0.0308414 4.60096e-19)
(0.587753 -0.0293539 -4.45692e-19)
(0.634486 -0.0279767 0)
(0.679984 -0.0266966 -4.20714e-19)
(0.724306 -0.0255038 0)
(0.767506 -0.0243908 3.99784e-19)
(0.809633 -0.0233504 0)
(0.850733 -0.0223758 0)
(0.890847 -0.0214605 0)
(0.930013 -0.0205991 0)
(0.968266 -0.0197866 0)
(1.00564 -0.0190184 -7.06629e-19)
(1.04216 -0.0182907 -6.94554e-19)
(1.07787 -0.0176005 0)
(1.11278 -0.0169458 0)
(1.14694 -0.0163238 0)
(1.18035 -0.0157318 6.53041e-19)
(1.21305 -0.0151672 0)
(1.24505 -0.0146283 0)
(1.27638 -0.0141134 0)
(1.30707 -0.0136213 6.19992e-19)
(1.33712 -0.013151 -6.12766e-19)
(1.36656 -0.0127017 0)
(1.39542 -0.0122723 0)
(1.4237 -0.0118615 -5.9313e-19)
(1.45142 -0.0114679 -5.8719e-19)
(1.47861 -0.0110904 0)
(1.50528 -0.0107284 0)
(1.53144 -0.0103809 5.70928e-19)
(1.5571 -0.0100473 -5.65974e-19)
(1.58229 -0.00972694 0)
(1.60702 -0.00941943 0)
(1.6313 -0.00912397 -5.52314e-19)
(1.65515 -0.00884031 0)
(1.67858 -0.00856869 0)
(1.70161 -0.00830839 -5.40222e-19)
(1.72425 -0.00805759 0)
(1.74651 -0.00781529 -5.329e-19)
(1.7684 -0.00758169 0)
(1.78994 -0.00735777 0)
(1.81115 -0.00714355 0)
(1.83201 -0.00693623 5.19737e-19)
(1.85256 -0.00673464 0)
(1.87278 -0.00653925 0)
(1.89269 -0.0063467 0)
(1.91228 -0.00615411 0)
(1.93154 -0.00596006 0)
(1.95045 -0.00576536 0)
(1.96898 -0.00555141 5.00698e-19)
(1.98704 -0.00530146 4.98425e-19)
(2.00452 -0.00502513 0)
(2.02137 -0.00472782 0)
(2.03751 -0.00440351 0)
(2.05279 -0.00403447 -4.90788e-19)
(2.067 -0.00359614 0)
(2.07979 -0.00304606 9.76957e-19)
(2.09063 -0.0023205 -9.76094e-19)
(2.09863 -0.00133459 -9.76779e-19)
(2.10255 0.000143414 9.78657e-19)
(2.0993 0.00281782 -9.8279e-19)
(2.08532 0.00841995 9.92635e-19)
(2.00865 0.0275529 0)
(-0.0852986 0.142558 0)
(-0.158027 0.25644 0)
(-0.257843 0.324005 6.77762e-20)
(-0.369723 0.362434 0)
(-0.487825 0.384496 -4.851e-20)
(-0.611369 0.397873 -4.32276e-20)
(-0.739213 0.405997 -1.9701e-20)
(-0.870047 0.410424 -1.80953e-20)
(-1.00279 0.412013 0)
(-1.13659 0.411336 -1.60705e-20)
(-1.27074 0.408821 0)
(-1.40468 0.404809 0)
(-1.53794 0.399582 2.90137e-20)
(-1.67015 0.393381 1.41788e-20)
(-1.80099 0.386411 -2.79576e-20)
(-1.93023 0.378852 -2.76373e-20)
(-2.05768 0.370854 -1.37075e-20)
(-2.1832 0.362549 0)
(-2.30668 0.354046 0)
(-2.42805 0.345437 0)
(-2.54726 0.336797 -1.36071e-20)
(-2.66429 0.328187 0)
(-2.77913 0.319652 4.12062e-20)
(-2.89178 0.311228 0)
(-3.00225 0.302939 0)
(-3.11057 0.2948 1.39983e-20)
(-3.21675 0.286818 0)
(-3.32081 0.278993 -1.41878e-20)
(-3.42278 0.27132 -2.84561e-20)
(-3.52266 0.26379 1.43869e-20)
(-3.62047 0.256387 0)
(-3.71621 0.249093 0)
(-3.80988 0.241889 0)
(-3.90146 0.234751 -2.94274e-20)
(-3.99093 0.227653 -2.96102e-20)
(-4.07826 0.220571 -1.49559e-20)
(-4.1634 0.213475 0)
(-4.2463 0.206337 3.02258e-20)
(-4.32686 0.199125 0)
(-4.40502 0.191809 -3.04847e-20)
(-4.48067 0.184354 0)
(-4.5537 0.176725 0)
(-4.62396 0.168889 3.07392e-20)
(-4.6913 0.160807 0)
(-4.75556 0.152445 9.2271e-20)
(-4.81654 0.143763 -3.0786e-20)
(-4.87404 0.134721 0)
(-4.92783 0.12528 -3.06721e-20)
(-4.97764 0.115398 -3.05645e-20)
(-5.02322 0.105034 0)
(-5.06426 0.0941513 0)
(-5.10043 0.0827102 0)
(-5.13137 0.0706724 0)
(-5.15672 0.0579995 0)
(-5.17612 0.0446518 2.90388e-20)
(-5.1892 0.0305862 5.76039e-20)
(-5.19549 0.0157636 -2.81322e-20)
(-5.19433 0.000186445 0)
(-5.18556 -0.0160861 5.427e-20)
(-5.16866 -0.0329965 -2.67435e-20)
(-5.1432 -0.0504746 0)
(-5.1088 -0.0684182 -2.43033e-20)
(-5.06511 -0.0866971 0)
(-5.01185 -0.105154 0)
(-4.94882 -0.123604 -4.30754e-20)
(-4.87593 -0.141842 1.97348e-20)
(-4.7932 -0.159644 -3.79714e-20)
(-4.70076 -0.176774 3.51645e-20)
(-4.5989 -0.192998 1.54255e-20)
(-4.48801 -0.208085 0)
(-4.36865 -0.221826 1.21671e-20)
(-4.24147 -0.234038 0)
(-4.10726 -0.244576 0)
(-3.96686 -0.253336 0)
(-3.82121 -0.26026 6.43763e-21)
(-3.67128 -0.265335 0)
(-3.51803 -0.268591 3.35239e-21)
(-3.36244 -0.2701 1.95976e-21)
(-3.20546 -0.269965 3.29464e-21)
(-3.04797 -0.268319 0)
(-2.89079 -0.265312 7.6381e-21)
(-2.73469 -0.261107 0)
(-2.58032 -0.255877 2.42913e-20)
(-2.42827 -0.249791 0)
(-2.27903 -0.243012 3.36353e-20)
(-2.13302 -0.235697 -7.39435e-20)
(-1.99055 -0.227992 -4.33228e-20)
(-1.85188 -0.220027 0)
(-1.71719 -0.211915 0)
(-1.5866 -0.203758 0)
(-1.46017 -0.19565 6.38477e-20)
(-1.33791 -0.187661 0)
(-1.2198 -0.179842 -7.47712e-20)
(-1.10578 -0.172248 0)
(-0.995761 -0.164925 2.56221e-19)
(-0.889623 -0.15788 9.21465e-20)
(-0.787256 -0.151131 9.82401e-20)
(-0.688504 -0.144726 0)
(-0.593209 -0.138651 0)
(-0.501236 -0.132871 0)
(-0.412387 -0.12747 0)
(-0.326545 -0.122425 0)
(-0.243507 -0.117653 2.75646e-19)
(-0.163013 -0.113288 2.90888e-19)
(-0.0852693 -0.109273 0)
(-0.00944003 -0.105383 -1.60819e-19)
(0.0641932 -0.101653 -1.63212e-19)
(0.134758 -0.0981982 0)
(0.202866 -0.095018 -3.24538e-19)
(0.269164 -0.0911507 0)
(0.332951 -0.0866503 1.6182e-19)
(0.394875 -0.0824617 0)
(0.454922 -0.0785933 0)
(0.513157 -0.0750469 -3.26216e-19)
(0.569675 -0.071791 0)
(0.624569 -0.068788 1.63889e-19)
(0.67793 -0.0660038 0)
(0.729838 -0.0634098 0)
(0.78037 -0.0609819 1.63021e-19)
(0.829594 -0.0587006 1.6394e-19)
(0.877573 -0.0565498 0)
(0.924364 -0.0545169 -1.63058e-19)
(0.970022 -0.0525916 0)
(1.01459 -0.0507651 1.6301e-19)
(1.05812 -0.0490294 3.26639e-19)
(1.10065 -0.0473778 0)
(1.14223 -0.0458039 0)
(1.18287 -0.0443019 0)
(1.22263 -0.0428668 0)
(1.26154 -0.0414944 3.26475e-19)
(1.29962 -0.0401808 9.77817e-19)
(1.3369 -0.0389229 0)
(1.37342 -0.037717 0)
(1.40919 -0.0365595 0)
(1.44425 -0.035447 -3.25569e-19)
(1.47861 -0.0343768 0)
(1.5123 -0.0333472 0)
(1.54534 -0.0323566 6.49357e-19)
(1.57775 -0.0314034 3.24164e-19)
(1.60955 -0.0304866 3.24764e-19)
(1.64077 -0.0296047 0)
(1.67142 -0.0287559 0)
(1.70151 -0.0279384 3.24357e-19)
(1.73107 -0.0271507 -3.23625e-19)
(1.76012 -0.0263918 0)
(1.78867 -0.0256605 0)
(1.81674 -0.0249557 -3.23913e-19)
(1.84433 -0.0242762 9.70934e-19)
(1.87148 -0.0236218 0)
(1.8982 -0.0229924 0)
(1.92449 -0.0223868 3.23571e-19)
(1.95038 -0.0218031 0)
(1.97588 -0.0212406 6.46433e-19)
(2.001 -0.0206991 -3.22954e-19)
(2.02576 -0.0201774 0)
(2.05018 -0.0196747 3.23254e-19)
(2.07426 -0.0191902 6.46025e-19)
(2.09803 -0.0187241 0)
(2.12148 -0.0182756 0)
(2.14463 -0.0178413 -3.23043e-19)
(2.1675 -0.017419 0)
(2.19008 -0.0170083 6.45574e-19)
(2.21239 -0.016604 0)
(2.23442 -0.0161998 0)
(2.25617 -0.0157874 0)
(2.27764 -0.0153568 0)
(2.2988 -0.0148994 -3.22782e-19)
(2.31964 -0.0144077 -3.22809e-19)
(2.34011 -0.0138756 0)
(2.36014 -0.0132917 0)
(2.37963 -0.0126308 0)
(2.39845 -0.0118488 3.23385e-19)
(2.41639 -0.0108827 0)
(2.43314 -0.00962944 -6.48642e-19)
(2.44822 -0.00792355 6.50343e-19)
(2.46084 -0.00550982 6.52968e-19)
(2.46955 -0.00181153 6.55708e-19)
(2.47186 0.00466791 6.58929e-19)
(2.46636 0.0178691 6.62085e-19)
(2.42518 0.0504579 0)
(-0.0899873 0.369722 0)
(-0.180365 0.49385 0)
(-0.28974 0.564975 -4.77013e-20)
(-0.40638 0.610846 -4.03614e-20)
(-0.524503 0.640384 3.49278e-20)
(-0.644153 0.659203 3.15901e-20)
(-0.765414 0.670526 -6.76345e-22)
(-0.887821 0.676201 0)
(-1.01084 0.677419 0)
(-1.13397 0.675042 0)
(-1.25681 0.669747 0)
(-1.379 0.662092 0)
(-1.50023 0.652544 -6.81606e-20)
(-1.62025 0.641502 0)
(-1.73888 0.629306 2.17306e-20)
(-1.85597 0.616247 2.15281e-20)
(-1.97139 0.602571 0)
(-2.08507 0.588485 0)
(-2.19695 0.574162 0)
(-2.307 0.559742 0)
(-2.4152 0.545338 2.13466e-20)
(-2.52155 0.53104 0)
(-2.62605 0.516913 -2.15012e-20)
(-2.72871 0.503004 0)
(-2.82955 0.489346 0)
(-2.92858 0.475955 0)
(-3.02584 0.462836 -4.40804e-20)
(-3.12132 0.449983 0)
(-3.21505 0.437384 2.22626e-20)
(-3.30702 0.425018 -4.48537e-20)
(-3.39724 0.412856 0)
(-3.48571 0.400867 0)
(-3.5724 0.389015 0)
(-3.6573 0.377259 2.29676e-20)
(-3.74037 0.365557 2.3098e-20)
(-3.82156 0.353864 0)
(-3.90083 0.342133 0)
(-3.9781 0.330317 -4.68657e-20)
(-4.05329 0.318363 -4.70646e-20)
(-4.12632 0.30622 4.72433e-20)
(-4.19706 0.293835 0)
(-4.26541 0.281152 0)
(-4.33122 0.268116 0)
(-4.39434 0.25467 0)
(-4.45459 0.240754 -4.76774e-20)
(-4.51179 0.226308 -4.77319e-20)
(-4.56571 0.21127 4.76867e-20)
(-4.61614 0.195576 0)
(-4.66281 0.179163 0)
(-4.70546 0.161969 0)
(-4.7438 0.143932 0)
(-4.77749 0.124993 -4.66992e-20)
(-4.80619 0.105094 0)
(-4.82953 0.0841799 0)
(-4.84717 0.0622051 -4.53444e-20)
(-4.85876 0.0391331 -4.42705e-20)
(-4.86383 0.0149387 0)
(-4.8619 -0.0103724 8.62256e-20)
(-4.85262 -0.0367605 -4.14383e-20)
(-4.83551 -0.0641578 4.02257e-20)
(-4.81016 -0.0924437 0)
(-4.77615 -0.121451 0)
(-4.73313 -0.150965 0)
(-4.68082 -0.180728 0)
(-4.61901 -0.21044 3.231e-20)
(-4.54757 -0.239763 6.26668e-20)
(-4.46651 -0.26833 2.82851e-20)
(-4.37596 -0.295758 -2.61003e-20)
(-4.27618 -0.321659 0)
(-4.16756 -0.345664 4.49738e-20)
(-4.05065 -0.367431 4.0014e-20)
(-3.92611 -0.38667 3.48679e-20)
(-3.7947 -0.40315 -2.95514e-20)
(-3.65729 -0.416711 0)
(-3.51479 -0.427268 -2.66346e-20)
(-3.36817 -0.43481 0)
(-3.2184 -0.439398 4.48571e-21)
(-3.06644 -0.441158 -5.51975e-22)
(-2.91321 -0.44027 0)
(-2.75958 -0.436957 0)
(-2.60636 -0.431469 -1.73808e-20)
(-2.45428 -0.424078 0)
(-2.30398 -0.415063 -2.99295e-20)
(-2.15601 -0.404703 0)
(-2.01084 -0.393262 4.26983e-20)
(-1.86887 -0.380991 1.00034e-19)
(-1.73039 -0.368126 0)
(-1.59564 -0.354877 0)
(-1.46477 -0.341421 0)
(-1.3379 -0.327919 7.54943e-20)
(-1.21507 -0.314521 0)
(-1.09629 -0.301341 8.89757e-20)
(-0.981522 -0.288449 0)
(-0.870711 -0.275932 0)
(-0.763752 -0.263868 -2.20695e-19)
(-0.660528 -0.252266 0)
(-0.560933 -0.241138 -1.23792e-19)
(-0.4648 -0.230569 0)
(-0.372005 -0.220557 -1.38275e-19)
(-0.282391 -0.21101 0)
(-0.195675 -0.202049 0)
(-0.111996 -0.19369 0)
(-0.0309299 -0.185724 -5.05429e-19)
(0.0479804 -0.17812 -1.73997e-19)
(0.123559 -0.171023 0)
(0.19662 -0.164232 0)
(0.267295 -0.157616 0)
(0.335601 -0.15132 0)
(0.401623 -0.145401 1.84819e-19)
(0.465588 -0.13952 -3.71689e-19)
(0.527674 -0.133655 -1.88567e-19)
(0.588087 -0.128084 3.7916e-19)
(0.64683 -0.122855 3.82681e-19)
(0.703939 -0.117967 1.93728e-19)
(0.75947 -0.113396 0)
(0.813486 -0.109114 3.92301e-19)
(0.866055 -0.105091 0)
(0.917243 -0.101302 -3.97996e-19)
(0.967115 -0.0977223 -2.00882e-19)
(1.01573 -0.0943335 0)
(1.06314 -0.0911184 4.05648e-19)
(1.10941 -0.0880623 2.04482e-19)
(1.15459 -0.0851528 0)
(1.19871 -0.0823788 2.05771e-19)
(1.24182 -0.0797307 -6.22226e-19)
(1.28397 -0.0771999 0)
(1.32519 -0.0747786 0)
(1.36551 -0.0724596 0)
(1.40497 -0.0702364 0)
(1.4436 -0.0681034 -4.24099e-19)
(1.48143 -0.066056 -4.26525e-19)
(1.51849 -0.0640896 0)
(1.5548 -0.0622 0)
(1.59038 -0.0603826 0)
(1.62528 -0.0586335 0)
(1.6595 -0.0569493 0)
(1.69307 -0.0553269 0)
(1.72602 -0.0537639 -4.37626e-19)
(1.75835 -0.0522578 -4.9454e-22)
(1.7901 -0.0508062 0)
(1.82128 -0.049407 0)
(1.85191 -0.0480583 -4.42937e-19)
(1.882 -0.0467582 0)
(1.91159 -0.0455049 4.46143e-19)
(1.94068 -0.0442966 4.47099e-19)
(1.96929 -0.0431315 0)
(1.99744 -0.0420077 0)
(2.02514 -0.040924 -4.51479e-19)
(2.05241 -0.03988 -9.04859e-19)
(2.07927 -0.0388754 0)
(2.10572 -0.0379081 0)
(2.1318 -0.0369751 0)
(2.1575 -0.0360749 -4.57848e-19)
(2.18285 -0.0352081 4.59085e-19)
(2.20786 -0.0343743 0)
(2.23255 -0.033572 9.22485e-19)
(2.25693 -0.032799 4.6218e-19)
(2.281 -0.0320539 -9.27286e-19)
(2.3048 -0.0313355 0)
(2.32831 -0.0306414 0)
(2.35157 -0.0299676 -9.34283e-19)
(2.37457 -0.0293119 -4.68512e-19)
(2.39732 -0.0286686 0)
(2.41983 -0.0280289 0)
(2.44209 -0.0273827 0)
(2.46411 -0.0267161 0)
(2.48587 -0.0260162 -9.47746e-19)
(2.50737 -0.0252711 0)
(2.52858 -0.0244656 0)
(2.54942 -0.0235758 0)
(2.56983 -0.0225614 0)
(2.58968 -0.0213559 0)
(2.60878 -0.0198607 0)
(2.62687 -0.0179183 -9.66966e-19)
(2.64354 -0.0152706 0)
(2.65817 -0.0114753 0)
(2.66973 -0.00571584 -1.96884e-18)
(2.67656 0.00387977 9.879e-19)
(2.6794 0.0215568 -9.93192e-19)
(2.66301 0.0566642 9.90074e-19)
(-0.0856617 0.621534 0)
(-0.179102 0.745755 1.12082e-19)
(-0.288506 0.810833 0)
(-0.402777 0.853799 3.24871e-20)
(-0.51653 0.882259 0)
(-0.629538 0.900211 0)
(-0.742275 0.910227 -2.61487e-20)
(-0.854712 0.91399 0)
(-0.966675 0.912694 0)
(-1.07798 0.90726 0)
(-1.18845 0.898444 0)
(-1.29794 0.886885 0)
(-1.40631 0.873136 7.78123e-20)
(-1.51345 0.857671 3.87399e-20)
(-1.61929 0.840898 -3.81606e-20)
(-1.72375 0.823166 0)
(-1.8268 0.804771 0)
(-1.9284 0.78596 0)
(-2.02853 0.766937 0)
(-2.1272 0.747867 0)
(-2.2244 0.728881 3.69382e-20)
(-2.32013 0.71008 3.6967e-20)
(-2.41442 0.691536 -3.70358e-20)
(-2.50727 0.6733 3.71378e-20)
(-2.5987 0.655403 0)
(-2.68872 0.637859 0)
(-2.77733 0.620667 3.72942e-20)
(-2.86456 0.603814 0)
(-2.95039 0.587278 0)
(-3.03483 0.571026 3.79714e-20)
(-3.11787 0.555019 3.84015e-20)
(-3.19949 0.539213 3.86208e-20)
(-3.27966 0.523557 0)
(-3.35836 0.507997 0)
(-3.43555 0.492475 -3.92829e-20)
(-3.51116 0.476932 0)
(-3.58515 0.461304 0)
(-3.65744 0.445525 3.97741e-20)
(-3.72794 0.429527 -4.02344e-20)
(-3.79655 0.413241 4.04174e-20)
(-3.86318 0.396593 0)
(-3.92768 0.379511 0)
(-3.98993 0.361918 8.14216e-20)
(-4.04977 0.343738 0)
(-4.10703 0.324888 8.17847e-20)
(-4.16151 0.305288 1.22599e-19)
(-4.21301 0.284854 -1.2263e-19)
(-4.26129 0.263499 8.18853e-20)
(-4.30611 0.241139 0)
(-4.3472 0.217688 0)
(-4.38427 0.193063 8.12838e-20)
(-4.41698 0.167184 4.00393e-20)
(-4.445 0.139971 0)
(-4.46795 0.111353 0)
(-4.48548 0.0812728 3.89702e-20)
(-4.49725 0.0496904 7.80967e-20)
(-4.50278 0.0165808 0)
(-4.50158 -0.0180777 -7.41469e-20)
(-4.49329 -0.0542563 7.37415e-20)
(-4.47742 -0.0918583 -7.18017e-20)
(-4.45354 -0.130722 0)
(-4.42122 -0.170622 0)
(-4.38006 -0.211268 0)
(-4.32975 -0.252306 0)
(-4.27003 -0.293319 0)
(-4.20076 -0.333833 -5.35686e-20)
(-4.12191 -0.373334 0)
(-4.03359 -0.411278 0)
(-3.93604 -0.447117 0)
(-3.82968 -0.480324 -7.83292e-20)
(-3.71504 -0.510415 -3.39829e-20)
(-3.59282 -0.536978 -2.95696e-20)
(-3.46381 -0.559688 5.17498e-20)
(-3.3289 -0.578319 -2.20051e-20)
(-3.18905 -0.592757 1.5592e-20)
(-3.04523 -0.602992 0)
(-2.89845 -0.609116 -5.79667e-21)
(-2.74968 -0.611313 0)
(-2.59985 -0.609843 0)
(-2.44981 -0.605024 0)
(-2.30037 -0.597209 2.78209e-20)
(-2.15223 -0.58678 -1.85272e-20)
(-2.00601 -0.574131 -2.26479e-20)