# vtk DataFile Version 2.0
track0
ASCII
DATASET POLYDATA
POINTS 11925 float
-0.0205 0.001 1e-05
-0.0202034 0.0010001 1e-05
-0.0199069 0.00100035 1e-05
-0.0196103 0.00100072 1e-05
-0.0193137 0.0010012 1e-05
-0.0190172 0.00100179 1e-05
-0.0187132 0.00100302 1e-05
-0.0184093 0.00100345 1e-05
-0.0181054 0.00100385 1e-05
-0.0178015 0.00100422 1e-05
-0.0174976 0.00100457 1e-05
-0.0172058 0.00100548 1e-05
-0.016914 0.00100571 1e-05
-0.0166222 0.00100596 1e-05
-0.0163305 0.00100621 1e-05
-0.0160387 0.00100649 1e-05
-0.0157586 0.00100728 1e-05
-0.0154784 0.00100761 1e-05
-0.0151983 0.00100798 1e-05
-0.0149182 0.0010084 1e-05
-0.0146381 0.00100886 1e-05
-0.0143692 0.00100974 1e-05
-0.0141002 0.00101029 1e-05
-0.0138313 0.00101088 1e-05
-0.0135624 0.00101152 1e-05
-0.0132934 0.0010122 1e-05
-0.0130353 0.00101317 1e-05
-0.0127771 0.00101392 1e-05
-0.0125189 0.0010147 1e-05
-0.0122607 0.00101551 1e-05
-0.0120025 0.00101636 1e-05
-0.0117547 0.00101738 1e-05
-0.0115068 0.00101827 1e-05
-0.0112589 0.00101918 1e-05
-0.0110111 0.00102011 1e-05
-0.0107632 0.00102107 1e-05
-0.0105252 0.00102213 1e-05
-0.0102873 0.00102311 1e-05
-0.0100493 0.0010241 1e-05
-0.00981133 0.00102511 1e-05
-0.00957337 0.00102614 1e-05
-0.00934491 0.00102721 1e-05
-0.00911645 0.00102824 1e-05
-0.00888799 0.00102928 1e-05
-0.00865954 0.00103034 1e-05
-0.00843108 0.0010314 1e-05
-0.00821175 0.00103247 1e-05
-0.00799242 0.00103352 1e-05
-0.00777309 0.00103458 1e-05
-0.00755376 0.00103565 1e-05
-0.00733443 0.00103673 1e-05
-0.00719322 0.00103743 1e-05
-0.007052 0.00103813 1e-05
-0.00691078 0.00103884 1e-05
-0.00676957 0.00103955 1e-05
-0.00662944 0.00104025 1e-05
-0.00655987 0.0010406 1e-05
-0.0064903 0.00104096 1e-05
-0.00642074 0.00104131 1e-05
-0.00635117 0.00104166 1e-05
-0.0062816 0.00104202 1e-05
-0.00607944 0.00104305 1e-05
-0.00587729 0.00104408 1e-05
-0.00567514 0.00104512 1e-05
-0.00547298 0.00104616 1e-05
-0.00527083 0.0010472 1e-05
-0.00507675 0.0010482 1e-05
-0.00488267 0.00104921 1e-05
-0.0046886 0.00105022 1e-05
-0.00449452 0.00105123 1e-05
-0.00430044 0.00105224 1e-05
-0.00411412 0.00105321 1e-05
-0.0039278 0.00105418 1e-05
-0.00374147 0.00105516 1e-05
-0.00355515 0.00105613 1e-05
-0.00336883 0.00105711 1e-05
-0.00318995 0.00105804 1e-05
-0.00301107 0.00105897 1e-05
-0.00283219 0.00105991 1e-05
-0.00265331 0.00106084 1e-05
-0.00247443 0.00106178 1e-05
-0.0023027 0.00106267 1e-05
-0.00213097 0.00106356 1e-05
-0.00195924 0.00106446 1e-05
-0.0017875 0.00106536 1e-05
-0.00161577 0.00106625 1e-05
-0.0014509 0.0010671 1e-05
-0.00128603 0.00106796 1e-05
-0.00112116 0.00106881 1e-05
-0.000956289 0.00106965 1e-05
-0.000791418 0.00107049 1e-05
-0.000633135 0.00107128 1e-05
-0.000474851 0.00107207 1e-05
-0.000316567 0.00107284 1e-05
-0.000158283 0.00107359 1e-05
0 0.00107433 1e-05
0.000105677 0.00107481 1e-05
0.000211355 0.00107528 1e-05
0.000317032 0.00107574 1e-05
0.00042271 0.00107619 1e-05
0.000528387 0.00107662 1e-05
0.000634886 0.00107704 1e-05
0.000741385 0.00107745 1e-05
0.000847885 0.00107786 1e-05
0.000954384 0.00107825 1e-05
0.00106088 0.00107863 1e-05
0.00116821 0.001079 1e-05
0.00127554 0.00107936 1e-05
0.00138286 0.00107971 1e-05
0.00149019 0.00108006 1e-05
0.00159752 0.00108039 1e-05
0.00170568 0.0010807 1e-05
0.00181384 0.00108101 1e-05
0.001922 0.00108132 1e-05
0.00203016 0.00108161 1e-05
0.00213833 0.00108189 1e-05
0.00224733 0.00108216 1e-05
0.00235633 0.00108243 1e-05
0.00246533 0.00108269 1e-05
0.00257434 0.00108294 1e-05
0.00268334 0.00108319 1e-05
0.00279319 0.00108342 1e-05
0.00290304 0.00108365 1e-05
0.00301289 0.00108388 1e-05
0.00312274 0.0010841 1e-05
0.00323259 0.00108431 1e-05
0.00334329 0.00108451 1e-05
0.003454 0.00108471 1e-05
0.0035647 0.00108491 1e-05
0.0036754 0.0010851 1e-05
0.00378611 0.00108529 1e-05
0.00389767 0.00108546 1e-05
0.00400924 0.00108564 1e-05
0.0041208 0.00108581 1e-05
0.00423237 0.00108598 1e-05
0.00434393 0.00108614 1e-05
0.00445636 0.00108629 1e-05
0.00456879 0.00108644 1e-05
0.00468123 0.00108659 1e-05
0.00479366 0.00108673 1e-05
0.00490609 0.00108687 1e-05
0.0050194 0.001087 1e-05
0.0051327 0.00108713 1e-05
0.00524601 0.00108726 1e-05
0.00535932 0.00108738 1e-05
0.00547262 0.00108749 1e-05
0.00556698 0.00108758 1e-05
0.00566134 0.00108767 1e-05
0.0057557 0.00108776 1e-05
0.00585006 0.00108784 1e-05
0.00594045 0.00108791 1e-05
0.00596107 0.00108793 1e-05
0.00598169 0.00108795 1e-05
0.00600231 0.00108796 1e-05
0.00602293 0.00108798 1e-05
0.00604356 0.001088 1e-05
0.00615863 0.00108808 1e-05
0.00627371 0.00108817 1e-05
0.00638878 0.00108824 1e-05
0.00650386 0.00108832 1e-05
0.00661893 0.00108838 1e-05
0.0067349 0.00108845 1e-05
0.00685087 0.00108851 1e-05
0.00696684 0.00108856 1e-05
0.00708281 0.00108861 1e-05
0.00719878 0.00108865 1e-05
0.00731565 0.00108869 1e-05
0.00743252 0.00108872 1e-05
0.00754939 0.00108875 1e-05
0.00766626 0.00108877 1e-05
0.00778313 0.00108879 1e-05
0.00790091 0.00108879 1e-05
0.00801869 0.0010888 1e-05
0.00813647 0.0010888 1e-05
0.00825425 0.0010888 1e-05
0.00837203 0.00108879 1e-05
0.00849073 0.00108876 1e-05
0.00860942 0.00108874 1e-05
0.00872812 0.00108871 1e-05
0.00884682 0.00108868 1e-05
0.00896551 0.00108864 1e-05
0.00908513 0.00108858 1e-05
0.00920475 0.00108853 1e-05
0.00932437 0.00108847 1e-05
0.00944398 0.00108841 1e-05
0.0095636 0.00108834 1e-05
0.00968415 0.00108824 1e-05
0.0098047 0.00108816 1e-05
0.00992525 0.00108807 1e-05
0.0100458 0.00108797 1e-05
0.0101663 0.00108787 1e-05
0.0102878 0.00108774 1e-05
0.0104093 0.00108762 1e-05
0.0105308 0.0010875 1e-05
0.0106523 0.00108736 1e-05
0.0107738 0.00108723 1e-05
0.0108962 0.00108706 1e-05
0.0110186 0.0010869 1e-05
0.0111411 0.00108674 1e-05
0.0112635 0.00108657 1e-05
0.0113859 0.0010864 1e-05
0.0115093 0.00108619 1e-05
0.0116327 0.001086 1e-05
0.0117561 0.0010858 1e-05
0.0118795 0.00108559 1e-05
0.0120028 0.00108538 1e-05
0.0121272 0.00108513 1e-05
0.0122515 0.0010849 1e-05
0.0123759 0.00108466 1e-05
0.0125002 0.00108441 1e-05
0.0126245 0.00108416 1e-05
0.0127498 0.00108387 1e-05
0.0128752 0.00108359 1e-05
0.0130005 0.00108331 1e-05
0.0131258 0.00108302 1e-05
0.0132511 0.00108272 1e-05
0.0133774 0.00108239 1e-05
0.0135036 0.00108207 1e-05
0.0136299 0.00108174 1e-05
0.0137562 0.00108141 1e-05
0.0138825 0.00108106 1e-05
0.0140098 0.00108069 1e-05
0.014137 0.00108032 1e-05
0.0142643 0.00107995 1e-05
0.0143915 0.00107957 1e-05
0.0145188 0.00107918 1e-05
0.0146471 0.00107875 1e-05
0.0147753 0.00107834 1e-05
0.0149036 0.00107792 1e-05
0.0150318 0.00107749 1e-05
0.0151601 0.00107705 1e-05
0.0152893 0.00107658 1e-05
0.0154186 0.00107612 1e-05
0.0155478 0.00107565 1e-05
0.0156771 0.00107517 1e-05
0.0158063 0.00107468 1e-05
0.0159366 0.00107416 1e-05
0.0160668 0.00107364 1e-05
0.0161971 0.00107312 1e-05
0.0163274 0.00107259 1e-05
0.0164576 0.00107204 1e-05
0.0165889 0.00107148 1e-05
0.0167201 0.00107091 1e-05
0.0168514 0.00107033 1e-05
0.0169827 0.00106975 1e-05
0.0171139 0.00106915 1e-05
0.0172462 0.00106854 1e-05
0.0173785 0.00106791 1e-05
0.0175108 0.00106728 1e-05
0.0176431 0.00106664 1e-05
0.0177754 0.00106599 1e-05
0.0179087 0.00106533 1e-05
0.018042 0.00106465 1e-05
0.0181753 0.00106396 1e-05
0.0183087 0.00106327 1e-05
0.018442 0.00106256 1e-05
0.0185763 0.00106184 1e-05
0.0187107 0.00106111 1e-05
0.018845 0.00106037 1e-05
0.0189794 0.00105961 1e-05
0.0191137 0.00105885 1e-05
0.0192491 0.00105808 1e-05
0.0193845 0.0010573 1e-05
0.0195199 0.00105649 1e-05
0.0196553 0.00105568 1e-05
0.0197907 0.00105487 1e-05
0.0199272 0.00105404 1e-05
0.0200636 0.0010532 1e-05
0.0202001 0.00105234 1e-05
0.0203365 0.00105147 1e-05
0.020473 0.0010506 1e-05
0.0206105 0.00104972 1e-05
0.020748 0.00104882 1e-05
0.0208855 0.0010479 1e-05
0.021023 0.00104697 1e-05
0.0211606 0.00104605 1e-05
0.0212991 0.00104512 1e-05
0.0214377 0.00104416 1e-05
0.0215763 0.00104318 1e-05
0.0217149 0.00104219 1e-05
0.0218535 0.00104121 1e-05
0.0219931 0.00104022 1e-05
0.0221328 0.00103921 1e-05
0.0222724 0.00103817 1e-05
0.0224121 0.00103712 1e-05
0.0225517 0.00103608 1e-05
0.0226925 0.00103504 1e-05
0.0228332 0.00103397 1e-05
0.022974 0.00103288 1e-05
0.0231147 0.00103177 1e-05
0.0232555 0.00103067 1e-05
0.0233973 0.00102958 1e-05
0.0235391 0.00102845 1e-05
0.023681 0.0010273 1e-05
0.0238228 0.00102613 1e-05
0.0239647 0.00102498 1e-05
0.0241076 0.00102383 1e-05
0.0242505 0.00102264 1e-05
0.0243935 0.00102143 1e-05
0.0245364 0.00102021 1e-05
0.0246794 0.001019 1e-05
0.0248234 0.00101779 1e-05
0.0249675 0.00101655 1e-05
0.0251115 0.00101528 1e-05
0.0252556 0.001014 1e-05
0.0253996 0.00101273 1e-05
0.0255448 0.00101147 1e-05
0.02569 0.00101017 1e-05
0.0258351 0.00100884 1e-05
0.0259803 0.0010075 1e-05
0.0261255 0.00100618 1e-05
0.0262718 0.00100486 1e-05
0.0264181 0.0010035 1e-05
0.0265644 0.00100211 1e-05
0.0267107 0.00100072 1e-05
0.026857 0.000999335 1e-05
0.0270044 0.000997959 1e-05
0.0271519 0.000996547 1e-05
0.0272993 0.000995099 1e-05
0.0274468 0.000993643 1e-05
0.0275942 0.000992204 1e-05
0.0277428 0.000990769 1e-05
0.0278914 0.000989298 1e-05
0.0280399 0.000987793 1e-05
0.0281885 0.000986281 1e-05
0.0283371 0.000984782 1e-05
0.0284869 0.000983288 1e-05
0.0286366 0.000981758 1e-05
0.0287863 0.000980197 1e-05
0.0289361 0.000978629 1e-05
0.0290858 0.000977071 1e-05
0.0292367 0.000975517 1e-05
0.0293876 0.000973927 1e-05
0.0295385 0.00097231 1e-05
0.0296894 0.000970685 1e-05
0.0298403 0.000969067 1e-05
0.0299924 0.000967451 1e-05
0.0301445 0.0009658 1e-05
0.0302966 0.000964125 1e-05
0.0304486 0.000962443 1e-05
0.0306007 0.000960763 1e-05
0.030754 0.000959085 1e-05
0.0309072 0.000957371 1e-05
0.0310605 0.000955638 1e-05
0.0312138 0.000953897 1e-05
0.031367 0.000952154 1e-05
0.0315215 0.000950412 1e-05
0.0316759 0.000948635 1e-05
0.0318304 0.000946841 1e-05
0.0319848 0.000945039 1e-05
0.0321393 0.000943233 1e-05
0.0322949 0.000941425 1e-05
0.0324506 0.000939582 1e-05
0.0326062 0.000937727 1e-05
0.0327619 0.000935862 1e-05
0.0329175 0.000933989 1e-05
0.0330744 0.000932114 1e-05
0.0332313 0.000930204 1e-05
0.0333881 0.000928285 1e-05
[...]
POINT_DATA 11925
 FIELD attributes 1
U 3 11925 float
9.9991 	0.00338344 	0 9.99878 	0.00857262 	0 9.99915 	0.0123332 	0 9.99953 	0.0160841 	0 9.99991 	0.0198252 	0 10.003 	0.040683 	0 10.0034 	0.0140591 	0 10.0062 	0.0131934 	0 10.009 	0.0123241 	0 10.0118 	0.011451 	0 10.0151 	0.0312099 	0 10.0176 	0.00792001 	0 10.0202 	0.00839417 	0 10.0228 	0.00887152 	0 10.0253 	0.00935207 	0 10.0255 	0.0285391 	0 10.0287 	0.0116192 	0 10.0301 	0.0132671 	0 10.0315 	0.0149256 	0 10.0329 	0.0165947 	0 10.0303 	0.0328123 	0 10.0348 	0.0205585 	0 10.0356 	0.0221617 	0 10.0365 	0.023774 	0 10.0374 	0.0253953 	0 10.033 	0.0376145 	0 10.0383 	0.0290478 	0 10.0388 	0.0303313 	0 10.0392 	0.031621 	0 10.0397 	0.0329169 	0 10.0344 	0.0415062 	0 10.0398 	0.0358794 	0 10.0399 	0.0368828 	0 10.04 	0.0378903 	0 10.0401 	0.0389017 	0 10.0346 	0.0445994 	0 10.0397 	0.0411789 	0 10.0395 	0.0419485 	0 10.0393 	0.0427205 	0 10.0392 	0.043495 	0 10.0342 	0.0470128 	0 10.0383 	0.0451615 	0 10.038 	0.0457342 	0 10.0376 	0.0463082 	0 10.0373 	0.0468838 	0 10.0335 	0.0488241 	0 10.0363 	0.0480409 	0 10.0358 	0.0484524 	0 10.0353 	0.0488648 	0 10.0348 	0.0492781 	0 10.0328 	0.0501221 	0 10.0339 	0.0499376 	0 10.0335 	0.0501271 	0 10.0331 	0.0503168 	0 10.0327 	0.0505067 	0 10.0324 	0.0506954 	0 10.0322 	0.0507872 	0 10.032 	0.050879 	0 10.0318 	0.0509709 	0 10.0316 	0.0510628 	0 10.0313 	0.0510564 	0 10.0308 	0.0513087 	0 10.0302 	0.0514844 	0 10.0295 	0.0516603 	0 10.0289 	0.0518364 	0 10.0277 	0.0516845 	0 10.0277 	0.0520394 	0 10.027 	0.0521363 	0 10.0264 	0.0522333 	0 10.0257 	0.0523303 	0 10.024 	0.0519466 	0 10.0246 	0.0523667 	0 10.0239 	0.0524063 	0 10.0232 	0.052446 	0 10.0225 	0.0524857 	0 10.0202 	0.0519491 	0 10.0216 	0.0524144 	0 10.021 	0.0524234 	0 10.0203 	0.0524323 	0 10.0196 	0.0524413 	0 10.0168 	0.0518178 	0 10.0191 	0.0523041 	0 10.0186 	0.0522927 	0 10.018 	0.0522813 	0 10.0175 	0.0522698 	0 10.0141 	0.0515881 	0 10.0175 	0.0518834 	0 10.0172 	0.0516084 	0 10.017 	0.0513332 	0 10.0167 	0.0510579 	0 10.0127 	0.050059 	0 10.0173 	0.0497602 	0 10.0175 	0.0487633 	0 10.0176 	0.047766 	0 10.0177 	0.0467684 	0 10.0132 	0.0451218 	0 10.0183 	0.0448274 	-3.33769e-21 10.0181 	0.0435843 	-8.92943e-21 10.0179 	0.0423407 	-1.4522e-20 10.0176 	0.0410967 	-2.01155e-20 10.0126 	0.0391785 	-2.6094e-20 10.0173 	0.0391831 	-4.0514e-20 10.0168 	0.038062 	-4.0365e-20 10.0163 	0.0369403 	-4.02113e-20 10.0158 	0.0358181 	-4.00529e-20 10.0107 	0.0338158 	-2.46883e-20 10.0149 	0.0340617 	-2.62791e-20 10.0143 	0.0329869 	-2.97251e-20 10.0136 	0.0319115 	-3.3173e-20 10.0129 	0.0308353 	-3.66229e-20 10.0079 	0.028683 	-4.0698e-20 10.0117 	0.0291197 	-5.33161e-20 10.0108 	0.0281788 	-5.31656e-20 10.0099 	0.0272371 	-5.30119e-20 10.009 	0.0262947 	-5.28549e-20 10.0041 	0.0241823 	-4.25848e-20 10.0073 	0.0247533 	-3.09909e-20 10.0062 	0.024017 	-1.87032e-20 10.005 	0.0232801 	-6.41609e-21 10.0039 	0.0225426 	5.87052e-21 9.99913 	0.0206638 	1.82406e-20 10.0017 	0.0212278 	1.17788e-20 10.0003 	0.0206464 	7.38629e-21 9.99888 	0.0200645 	2.99394e-21 9.99748 	0.019482 	-1.39823e-21 9.99293 	0.0179009 	-1.89852e-21 9.99474 	0.0183344 	5.20709e-21 9.9931 	0.0178412 	6.01531e-21 9.99146 	0.0173475 	6.82063e-21 9.98981 	0.0168534 	7.62304e-21 9.98554 	0.0155747 	1.05471e-21 9.98655 	0.0158179 	1.87951e-20 9.98464 	0.0153723 	2.25206e-20 9.98272 	0.0149264 	2.62412e-20 9.9808 	0.0144801 	2.9957e-20 9.97684 	0.0134869 	2.0615e-20 9.97695 	0.0135271 	1.76568e-20 9.97474 	0.0131051 	1.31466e-20 9.97252 	0.0126827 	8.63655e-21 9.97031 	0.0122601 	4.12678e-21 9.96668 	0.0115163 	-7.86908e-22 9.96577 	0.0113664 	6.06806e-21 9.96323 	0.0109513 	1.26869e-20 9.9607 	0.0105359 	1.93061e-20 9.95816 	0.0101203 	2.59256e-20 9.95493 	0.00957649 	3.23662e-20 9.95335 	0.00933546 	2.719e-20 9.95096 	0.0089895 	2.18385e-20 9.94857 	0.00864339 	1.64872e-20 9.94619 	0.00829712 	1.11362e-20 9.9439 	0.00796532 	6.01111e-21 9.94337 	0.00788901 	4.91642e-21 9.94284 	0.0078127 	3.82183e-21 9.94231 	0.00773637 	2.72733e-21 9.94178 	0.00766004 	1.63292e-21 9.94034 	0.00758153 	1.07297e-22 9.93791 	0.0071583 	-7.36037e-21 9.93461 	0.00672807 	-1.44018e-20 9.9313 	0.00629762 	-2.1446e-20 9.92799 	0.00586696 	-2.84931e-20 9.91841 	0.0053586 	-3.26822e-20 9.92072 	0.00501718 	-1.96349e-20 9.917 	0.00457589 	-6.58629e-21 9.91329 	0.00413439 	6.46229e-21 9.90957 	0.00369269 	1.95109e-20 9.89376 	0.00301132 	3.16408e-20 9.90119 	0.00282146 	4.23363e-20 9.89705 	0.00236698 	4.82188e-20 9.8929 	0.0019123 	5.41035e-20 9.88875 	0.00145743 	5.99904e-20 9.86633 	0.000543112 	5.71126e-20 9.87915 	0.000546596 	5.03671e-20 9.87457 	7.79293e-05 	4.36797e-20 9.86998 	-0.000390936 	3.69911e-20 9.86538 	-0.000860001 	3.03013e-20 9.83609 	-0.00203812 	2.63953e-20 9.85447 	-0.00182345 	1.32403e-20 9.84942 	-0.00230571 	-2.22397e-21 9.84436 	-0.00278819 	-1.76879e-20 9.8393 	-0.00327087 	-3.31514e-20 9.80308 	-0.00471745 	-4.29087e-20 9.827 	-0.00429451 	-2.83435e-20 9.82148 	-0.00478929 	-2.75366e-20 9.81596 	-0.00528429 	-2.67243e-20 9.81042 	-0.00577952 	-2.59067e-20 9.76733 	-0.00747838 	-4.3173e-20 9.79667 	-0.00686703 	-3.65936e-20 9.79068 	-0.00737337 	-2.6393e-20 9.78467 	-0.00787996 	-1.61916e-20 9.77867 	-0.0083868 	-5.98942e-21 9.72896 	-0.0103059 	0 9.76343 	-0.0095386 	-3.11021e-21 9.75696 	-0.0100558 	-8.50212e-21 9.75049 	-0.0105732 	-1.38936e-20 9.74401 	-0.011091 	-1.92846e-20 9.68809 	-0.0131867 	-1.92942e-20 9.72727 	-0.0123045 	-2.19677e-20 9.72034 	-0.012832 	-2.18459e-20 9.71341 	-0.0133598 	-2.17233e-20 9.70646 	-0.0138879 	-2.15998e-20 9.64489 	-0.0161089 	-2.03269e-20 9.68825 	-0.0151584 	-1.88718e-20 9.68087 	-0.0156958 	-1.32978e-20 9.67348 	-0.0162337 	-7.72337e-21 9.66607 	-0.0167719 	-2.14844e-21 9.59953 	-0.0190622 	-2.30573e-21 9.64644 	-0.0180925 	-3.61943e-21 9.63862 	-0.0186398 	-1.34469e-20 9.63079 	-0.0191875 	-2.32735e-20 9.62295 	-0.0197356 	-3.30992e-20 9.5522 	-0.0220373 	-3.60938e-20 9.60196 	-0.0210985 	-2.14041e-22 9.59373 	-0.0216555 	7.83506e-22 9.58548 	-0.022213 	1.7874e-21 9.57722 	-0.0227709 	2.79766e-21 9.50312 	-0.0250258 	-3.49531e-20 9.55498 	-0.024167 	-3.23587e-20 9.54635 	-0.0247337 	-2.21304e-20 9.53771 	-0.0253008 	-1.19012e-20 9.52906 	-0.0258685 	-1.67099e-21 9.45249 	-0.0280201 	0 9.50569 	-0.0272885 	0 9.49669 	-0.0278647 	0 9.48768 	-0.0284413 	0 9.47865 	-0.0290186 	0 9.40052 	-0.0310128 	0 9.4543 	-0.030453 	5.80824e-22 9.44496 	-0.0310383 	1.11525e-20 9.4356 	-0.0316242 	2.17232e-20 9.42623 	-0.0322107 	3.22927e-20 9.34743 	-0.033997 	4.28898e-20 9.39921 	-0.0336775 	3.19668e-20 9.3914 	-0.0342439 	4.15439e-20 9.38172 	-0.0348386 	5.17578e-20 9.36687 	-0.0355039 	6.25751e-20 9.2934 	-0.036966 	8.02843e-20 9.33958 	-0.0369428 	6.17782e-20 9.33627 	-0.0374708 	4.95747e-20 9.32629 	-0.0380736 	3.82148e-20 9.3066 	-0.0387677 	2.99452e-20 9.23864 	-0.0399133 	3.70512e-20 9.27938 	-0.0401718 	2.94694e-20 9.27983 	-0.0407076 	1.56226e-20 9.26959 	-0.0413175 	1.14502e-22 9.2459 	-0.0419879 	-1.18726e-20 9.18333 	-0.0428322 	-1.36658e-20 9.21886 	-0.043355 	3.68283e-20 9.22235 	-0.0439422 	5.29182e-20 9.21187 	-0.044558 	5.40077e-20 9.18502 	-0.0451547 	3.7166e-20 9.12765 	-0.0457152 	-1.31693e-20 9.15825 	-0.0464824 	-1.10792e-20 9.16411 	-0.0471613 	-7.39514e-21 9.15341 	-0.0477816 	-2.64436e-21 9.1242 	-0.0482584 	0 9.07176 	-0.0485551 	0 9.09777 	-0.0495454 	0 9.10536 	-0.0503528 	0 9.09446 	-0.0509763 	0 9.06362 	-0.0512926 	0 9.01583 	-0.0513479 	0 9.03759 	-0.0525395 	0 9.04635 	-0.0535077 	0 9.03529 	-0.0541335 	0 9.00346 	-0.0542542 	0 8.96 	-0.0540917 	0 8.97788 	-0.0554619 	0 8.98732 	-0.0566179 	2.01183e-21 8.97612 	-0.0572451 	8.97094e-21 8.94388 	-0.0571411 	2.43677e-20 8.9044 	-0.0567848 	4.26737e-20 8.91876 	-0.05831 	1.65088e-19 8.92848 	-0.0596752 	2.65014e-19 8.91715 	-0.0603025 	2.62184e-19 8.88499 	-0.0599509 	1.56153e-19 8.84914 	-0.0594249 	3.17718e-20 8.86035 	-0.0610819 	-3.05909e-20 8.87 	-0.0626714 	-8.93157e-20 8.85858 	-0.0632978 	-9.73861e-20 8.8269 	-0.0626825 	-5.49568e-20 8.79433 	-0.062011 	-1.02651e-20 8.80275 	-0.0637766 	-7.8465e-21 8.81111 	-0.0655442 	-5.425e-21 8.79934 	-0.0661284 	9.4515e-21 8.7697 	-0.0653358 	1.64728e-20 8.74008 	-0.0645425 	2.34955e-20 8.74604 	-0.0663949 	1.58691e-20 8.75192 	-0.0682492 	8.23834e-21 8.74048 	-0.0688037 	1.98615e-20 8.71347 	-0.0679124 	5.27877e-20 8.68648 	-0.0670204 	8.57155e-20 8.69027 	-0.0689386 	1.4327e-19 8.694 	-0.0708587 	2.0082e-19 8.68294 	-0.0713832 	1.86329e-19 8.65826 	-0.0704153 	1.08e-19 8.6336 	-0.0694465 	2.96693e-20 8.63552 	-0.0714112 	1.7453e-20 8.63736 	-0.0733778 	5.24058e-21 8.62673 	-0.0738725 	-7.23556e-21 8.60411 	-0.0728487 	-2.04928e-20 8.58151 	-0.0718241 	-3.37513e-20 8.58181 	-0.0738175 	-2.01491e-20 8.58203 	-0.0758129 	-6.54424e-21 8.57186 	-0.0762788 	4.58718e-21 8.55105 	-0.0752183 	1.45798e-20 8.53028 	-0.0741571 	2.45743e-20 8.52917 	-0.0761635 	1.40777e-20 8.52799 	-0.078172 	3.57721e-21 8.51832 	-0.0786103 	8.13827e-21 8.49911 	-0.0775309 	1.82626e-20 8.47993 	-0.0764507 	2.83839e-20 8.47763 	-0.0784566 	6.31686e-20 8.47525 	-0.0804644 	9.79606e-20 8.4661 	-0.0808766 	9.42328e-20 8.44829 	-0.0797942 	4.72835e-20 8.43052 	-0.078711 	3.28777e-22 8.42719 	-0.0807046 	4.6911e-21 8.42379 	-0.0827001 	9.06379e-21 8.41518 	-0.0830882 	-1.29072e-20 8.3986 	-0.0820169 	-3.27333e-20 8.38206 	-0.0809447 	-5.25585e-20 8.37786 	-0.0829166 	-1.63384e-19 8.3734 	-0.084817 	-2.68882e-19 8.36498 	-0.085151 	-2.60428e-19 8.35004 	-0.0842081 	-1.52201e-19 8.33458 	-0.0831591 	-3.57377e-20 8.32964 	-0.0851018 	-2.18834e-20 8.32405 	-0.0867605 	-8.68585e-21 8.31577 	-0.0870987 	1.47546e-21 8.3026 	-0.0863773 	1.74536e-20 8.2881 	-0.0853618 	3.50452e-20 8.28252 	-0.0872696 	5.95436e-20 8.2761 	-0.0886887 	7.26635e-20 8.26795 	-0.0890328 	6.08184e-20 8.25626 	-0.0885342 	3.30674e-20 8.24262 	-0.0875605 	-3.64056e-21 8.23649 	-0.0894295 	-9.56544e-20 8.22949 	-0.0906152 	-1.46545e-19 8.22146 	-0.0909667 	-1.47283e-19 8.21101 	-0.0906882 	-1.11501e-19 8.19812 	-0.0897627 	-3.82465e-20 8.19153 	-0.0915906 	-2.74203e-20 8.18415 	-0.0925524 	-2.48739e-20 8.17623 	-0.092913 	-2.8072e-20 8.16682 	-0.0928489 	-3.50107e-20 8.1546 	-0.0919769 	-4.90577e-20 8.14762 	-0.0937633 	-1.18895e-19 8.14003 	-0.0945134 	-1.34362e-19 8.13221 	-0.0948851 	-1.2997e-19 8.12365 	-0.0950279 	-1.12524e-19 8.11203 	-0.0942135 	-4.05189e-20 8.10471 	-0.0959593 	-2.99193e-20 8.09705 	-0.0965114 	-1.97735e-20 8.08934 	-0.0968961 	-9.69226e-21 8.08147 	-0.0972372 	3.61987e-22 8.0704 	-0.0964829 	9.76632e-21 8.06279 	-0.098159 	-6.81458e-23 8.05518 	-0.0985584 	-2.94572e-21 8.04755 	-0.0989579 	-5.82357e-21 8.03991 	-0.0993577 	-8.70171e-21 8.02967 	-0.0987951 	9.33023e-21 8.02187 	-0.100249 	2.62536e-20 8.01435 	-0.100665 	3.7966e-20 8.00681 	-0.101081 	4.96747e-20 7.99925 	-0.101497 	6.13798e-20 7.98983 	-0.101159 	4.98826e-20 7.98196 	-0.102406 	6.40011e-20 7.97452 	-0.10284 	6.62829e-20 7.96705 	-0.103274 	6.85627e-20 7.95957 	-0.103708 	7.08406e-20 7.95082 	-0.103583 	4.92694e-20 7.94299 	-0.104639 	4.45708e-20 7.93562 	-0.105092 	3.22202e-20 7.92823 	-0.105545 	1.98711e-20 7.92081 	-0.105999 	7.52356e-21 7.91262 	-0.106077 	-3.61711e-21 7.90492 	-0.106956 	0 7.89761 	-0.10743 	0 7.89028 	-0.107904 	0 7.88293 	-0.108378 	0 7.87518 	-0.108649 	0 7.86768 	-0.109364 	4.05823e-21 7.86042 	-0.10986 	9.17046e-21 7.85315 	-0.110357 	1.42833e-20 7.84585 	-0.110853 	1.93968e-20 7.83847 	-0.111308 	2.40856e-20 7.83646 	-0.111493 	2.43786e-20 7.83452 	-0.111633 	2.44715e-20 7.83258 	-0.111773 	2.45644e-20 7.83064 	-0.111913 	2.46574e-20 7.82872 	-0.112051 	2.47494e-20 7.82321 	-0.112433 	2.55429e-20 7.81768 	-0.112816 	2.63388e-20 7.81214 	-0.113198 	2.7137e-20 7.80659 	-0.11358 	2.79375e-20 7.80184 	-0.113851 	2.40951e-20 7.79395 	-0.1145 	1.49711e-20 7.78645 	-0.115047 	5.17702e-21 7.77893 	-0.115594 	-4.61707e-21 7.77139 	-0.116142 	-1.44112e-20 7.76574 	-0.116429 	-2.2574e-20 7.75731 	-0.117239 	-3.15546e-20 7.74985 	-0.117812 	-2.82996e-20 7.74236 	-0.118384 	-2.505e-20 7.73485 	-0.118957 	-2.18058e-20 7.7303 	-0.119128 	-1.21719e-21 7.72135 	-0.120095 	-1.9784e-20 7.71391 	-0.120694 	-1.65464e-20 7.70645 	-0.121293 	-1.3316e-20 7.69896 	-0.121893 	-1.0093e-20 7.69548 	-0.121954 	1.98176e-20 7.686 	-0.123073 	1.25889e-20 7.67858 	-0.123701 	-9.4285e-22 7.67113 	-0.124329 	-1.44738e-20 7.66366 	-0.124957 	-2.80038e-20 7.66122 	-0.124914 	-3.74334e-20 7.65122 	-0.126184 	-2.85395e-20 7.64381 	-0.126841 	-2.78472e-20 7.63637 	-0.127499 	-2.71515e-20 7.62923 	-0.128114 	-2.69947e-20 7.62746 	-0.128017 	-3.58297e-20 7.61735 	-0.129342 	-2.62929e-20 7.60955 	-0.130123 	-1.29985e-20 7.60211 	-0.130812 	9.32622e-22 7.59606 	-0.131316 	1.24207e-20 7.59418 	-0.131272 	1.66798e-20 7.58412 	-0.132611 	4.83355e-20 7.57575 	-0.133554 	6.04795e-20 7.5683 	-0.134276 	6.16671e-20 7.56331 	-0.134675 	4.782e-20 7.5613 	-0.134684 	1.57488e-20 7.5513 	-0.136039 	1.11004e-20 7.54235 	-0.137142 	1.08438e-21 7.53489 	-0.137897 	-1.63336e-20 7.53091 	-0.138198 	-3.65885e-20 7.52878 	-0.13826 	-5.83353e-20 7.51882 	-0.139633 	-1.4211e-19 7.5093 	-0.140893 	-2.10276e-19 7.50182 	-0.141683 	-2.13932e-19 7.49883 	-0.141891 	-1.41753e-19 7.49656 	-0.142007 	-5.75246e-20 7.48663 	-0.1434 	-3.53424e-20 7.47665 	-0.144793 	-1.31584e-20 7.46942 	-0.145591 	-3.96692e-21 7.46701 	-0.145761 	-8.02441e-21 7.4646 	-0.14593 	-1.20818e-20 7.45469 	-0.147345 	-4.21191e-20 7.44473 	-0.148759 	-7.21545e-20 7.43797 	-0.149588 	-7.20622e-20 7.43541 	-0.149813 	-4.15916e-20 7.43285 	-0.150037 	-1.11195e-20 7.42296 	-0.151475 	-6.65183e-21 7.41301 	-0.152913 	-2.1823e-21 7.40669 	-0.153775 	0 7.40398 	-0.154055 	0 7.40126 	-0.154336 	0 7.39137 	-0.1558 	0 7.38143 	-0.157263 	0 7.37553 	-0.15816 	-8.87381e-22 7.37266 	-0.158497 	-4.78816e-21 7.36977 	-0.158835 	-8.68867e-21 7.35988 	-0.160326 	-3.75e-20 7.34994 	-0.161818 	-6.63093e-20 7.34449 	-0.16274 	-6.56852e-20 7.3414 	-0.163146 	-3.32404e-20 7.33835 	-0.163541 	-1.30847e-22 7.32844 	-0.165062 	3.25968e-20 7.31943 	-0.166464 	5.81795e-20 7.31401 	-0.167414 	5.65495e-20 7.31016 	-0.168008 	2.99589e-20 7.30693 	-0.168461 	-6.52559e-21 7.29699 	-0.170013 	-2.35698e-21 7.28903 	-0.171315 	-5.21231e-23 7.28349 	-0.17231 	-1.85916e-23 7.27889 	-0.17309 	-3.41585e-21 7.27546 	-0.173601 	-1.10839e-20 7.26549 	-0.175187 	-2.56142e-21 7.25854 	-0.176392 	0 7.25288 	-0.177435 	0 7.24752 	-0.178398 	1.23186e-21 7.2439 	-0.17897 	8.63298e-21 7.23389 	-0.180591 	3.78353e-22 7.22792 	-0.181705 	-7.66161e-21 7.22211 	-0.182796 	-1.56936e-20 7.21627 	-0.183887 	-2.37281e-20 7.2122 	-0.184574 	-2.51926e-20 7.20303 	-0.186121 	-7.3724e-20 7.19711 	-0.187262 	-7.12367e-20 7.19116 	-0.188402 	-6.87336e-20 7.18516 	-0.189543 	-6.62145e-20 7.18029 	-0.190423 	-3.20422e-20 7.17213 	-0.191876 	-1.21013e-20 7.16606 	-0.193068 	-6.59796e-21 7.15995 	-0.194259 	-1.10846e-21 7.15379 	-0.195451 	4.36712e-21 7.14813 	-0.196523 	4.84433e-21 7.14171 	-0.197734 	4.86235e-21 7.13625 	-0.198825 	1.16099e-20 7.13075 	-0.199915 	1.83596e-20 7.12521 	-0.201006 	2.51114e-20 7.11997 	-0.202033 	3.14697e-20 7.11908 	-0.202199 	3.23765e-20 7.11818 	-0.202364 	3.32833e-20 7.11728 	-0.202529 	3.419e-20 7.11638 	-0.202695 	3.50966e-20 7.1155 	-0.202843 	3.63007e-20 7.10885 	-0.204154 	4.11909e-20 7.1021 	-0.205448 	4.69788e-20 7.0953 	-0.206742 	5.27575e-20 7.08845 	-0.208036 	5.85268e-20 7.08168 	-0.209185 	6.69265e-20 7.07529 	-0.210679 	4.33133e-20 7.06834 	-0.212027 	3.26882e-20 7.06134 	-0.213376 	2.20407e-20 7.05429 	-0.214724 	1.13705e-20 7.04743 	-0.2158 	2.85252e-20 7.04128 	-0.217477 	4.47712e-20 7.03412 	-0.21888 	3.90137e-20 7.02691 	-0.220283 	3.32663e-20 7.01965 	-0.221686 	2.75287e-20 7.01268 	-0.222693 	1.3133e-22 7.00661 	-0.224509 	-3.491e-23 6.99939 	-0.22601 	5.48734e-21 6.99195 	-0.227468 	1.17858e-20 6.98456 	-0.228805 	1.80831e-20 6.97736 	-0.229865 	2.43828e-20 6.97105 	-0.23173 	1.71428e-20 6.96407 	-0.233421 	1.29927e-20 6.9564 	-0.234934 	1.19944e-20 6.94887 	-0.236197 	1.79552e-20 6.94141 	-0.23732 	2.78197e-20 6.93485 	-0.239233 	4.39242e-20 6.92811 	-0.241113 	5.85525e-20 6.92018 	-0.242681 	5.92729e-20 6.9125 	-0.243871 	4.25944e-20 6.90477 	-0.245055 	2.56739e-20 6.89794 	-0.247017 	1.56285e-20 6.89104 	-0.248978 	5.58118e-21 6.88334 	-0.250579 	8.07282e-21 6.87537 	-0.251824 	1.98456e-20 6.86736 	-0.253069 	3.16134e-20 6.86025 	-0.255078 	-7.55881e-21 6.85307 	-0.257087 	-4.67396e-20 6.84569 	-0.25875 	-4.56283e-20 6.83743 	-0.260054 	-5.3907e-21 6.82912 	-0.261358 	3.48465e-20 6.82171 	-0.263413 	4.32536e-20 6.81425 	-0.265437 	5.05567e-20 6.80695 	-0.267129 	4.59517e-20 6.79861 	-0.268554 	2.97067e-20 6.78998 	-0.269914 	1.07072e-20 6.78226 	-0.272014 	-2.04277e-20 6.77458 	-0.273945 	-3.75224e-20 6.76695 	-0.275687 	-3.88815e-20 6.75883 	-0.277315 	-3.4371e-20 6.74988 	-0.27873 	-1.88267e-20 6.74184 	-0.280872 	-9.59065e-21 6.7339 	-0.282707 	-8.54239e-21 6.72593 	-0.284496 	-8.72555e-21 6.71788 	-0.286285 	-8.91252e-21 6.70874 	-0.287794 	-1.62675e-20 6.70042 	-0.289879 	-8.21011e-21 6.69215 	-0.291712 	-2.72567e-21 6.68382 	-0.293545 	2.75871e-21 6.67542 	-0.295378 	8.24302e-21 6.66651 	-0.297094 	1.09226e-20 6.66039 	-0.298528 	2.06282e-20 6.65428 	-0.299857 	2.36692e-20 6.64814 	-0.301186 	2.6706e-20 6.64196 	-0.302515 	2.97386e-20 6.63608 	-0.303772 	3.26028e-20 6.63369 	-0.304332 	3.44831e-20 6.6313 	-0.304891 	3.63639e-20 6.6289 	-0.30545 	3.82453e-20 6.6265 	-0.306009 	4.01273e-20 6.624 	-0.306522 	3.95975e-20 6.61615 	-0.308487 	3.9437e-20 6.60796 	-0.3104 	3.72758e-20 6.5997 	-0.312312 	3.51195e-20 6.59138 	-0.314224 	3.29683e-20 6.58259 	-0.315933 	2.34898e-20 6.57527 	-0.318108 	1.94104e-20 6.5667 	-0.320055 	1.83112e-20 6.55807 	-0.322 	1.72048e-20 6.54937 	-0.323946 	1.60913e-20 6.53989 	-0.325532 	2.05546e-20 6.53285 	-0.327866 	3.4687e-20 6.52415 	-0.329891 	3.73241e-20 6.51513 	-0.331866 	3.81092e-20 6.50576 	-0.333699 	3.28638e-20 6.49585 	-0.335299 	1.76108e-20 6.48839 	-0.337653 	1.20513e-20 6.48025 	-0.33989 	7.26041e-21 6.47082 	-0.34189 	4.04179e-21 6.46072 	-0.343587 	5.34474e-21 6.45041 	-0.345216 	7.64349e-21 6.44252 	-0.347586 	4.84177e-21 6.43453 	-0.349955 	2.038e-21 6.4249 	-0.351954 	3.15487e-22 6.41425 	-0.353607 	-2.4089e-21 6.40353 	-0.355261 	-5.13839e-21 6.39519 	-0.357642 	-3.82134e-21 6.38676 	-0.360023 	-2.51016e-21 6.37737 	-0.362067 	-3.23402e-21 6.3663 	-0.36374 	-6.00639e-21 6.35515 	-0.365413 	-8.7841e-21 6.34636 	-0.367801 	-7.48427e-21 6.3373 	-0.370107 	-5.57896e-21 6.32761 	-0.372137 	-1.61404e-21 6.31681 	-0.373963 	0 6.30523 	-0.375649 	0 6.29597 	-0.37804 	0 6.28609 	-0.380172 	0 6.27593 	-0.382206 	0 6.26569 	-0.384239 	0 6.25373 	-0.385947 	0 6.24382 	-0.388251 	0 6.23327 	-0.390285 	0 6.22264 	-0.392318 	0 6.21192 	-0.39435 	0 6.2006 	-0.39628 	-1.12292e-21 6.19582 	-0.397282 	1.76432e-23 6.19085 	-0.3982 	5.53379e-23 6.18586 	-0.399118 	9.30453e-23 6.18085 	-0.400035 	1.30765e-22 6.17599 	-0.400922 	1.67259e-22 6.17008 	-0.402041 	2.03443e-22 6.16415 	-0.403159 	2.39608e-22 6.15819 	-0.404277 	2.75753e-22 6.1522 	-0.405395 	3.11879e-22 6.1464 	-0.406413 	-2.67823e-21 6.13556 	-0.408558 	-6.20119e-21 6.12444 	-0.410579 	-7.99415e-21 6.11324 	-0.4126 	-9.79967e-21 6.10195 	-0.41462 	-1.16178e-20 6.09117 	-0.416356 	-1.42678e-21 6.08016 	-0.418695 	1.22953e-22 6.06858 	-0.420716 	-2.82876e-21 6.05689 	-0.42272 	-6.01987e-21 6.04536 	-0.424594 	-7.81807e-21 6.03419 	-0.426252 	-7.26265e-21 6.0227 	-0.428566 	-6.34846e-21 6.011 	-0.430802 	-5.43801e-21 5.9988 	-0.432782 	-4.55548e-21 5.98715 	-0.43444 	-1.04341e-20 5.97545 	-0.436075 	-1.67903e-20 5.96347 	-0.438357 	-1.00771e-20 5.9514 	-0.440639 	-3.36354e-21 5.9393 	-0.442585 	-6.49705e-21 5.92716 	-0.44419 	-1.95326e-20 5.91495 	-0.445796 	-3.25729e-20 5.90247 	-0.448041 	-7.00815e-20 5.88995 	-0.450249 	-1.01721e-19 5.87791 	-0.452148 	-8.30789e-20 5.86541 	-0.453816 	-4.52535e-20 5.85266 	-0.455386 	7.01701e-22 5.83967 	-0.457588 	-3.7965e-20 5.82702 	-0.459543 	-4.2979e-20 5.81446 	-0.461399 	-3