# vtk DataFile Version 2.0
track0
ASCII
DATASET POLYDATA
POINTS 11925 float
-0.0205 0.001 1e-05
-0.0202034 0.0010001 1e-05
-0.0199069 0.00100035 1e-05
-0.0196103 0.00100072 1e-05
-0.0193137 0.0010012 1e-05
-0.0190172 0.00100179 1e-05
-0.0187132 0.00100302 1e-05
-0.0184093 0.00100345 1e-05
-0.0181054 0.00100385 1e-05
-0.0178015 0.00100422 1e-05
-0.0174976 0.00100457 1e-05
-0.0172058 0.00100548 1e-05
-0.016914 0.00100571 1e-05
-0.0166222 0.00100596 1e-05
-0.0163305 0.00100621 1e-05
-0.0160387 0.00100649 1e-05
-0.0157586 0.00100728 1e-05
-0.0154784 0.00100761 1e-05
-0.0151983 0.00100798 1e-05
-0.0149182 0.0010084 1e-05
-0.0146381 0.00100886 1e-05
-0.0143692 0.00100974 1e-05
-0.0141002 0.00101029 1e-05
-0.0138313 0.00101088 1e-05
-0.0135624 0.00101152 1e-05
-0.0132934 0.0010122 1e-05
-0.0130353 0.00101317 1e-05
-0.0127771 0.00101392 1e-05
-0.0125189 0.0010147 1e-05
-0.0122607 0.00101551 1e-05
-0.0120025 0.00101636 1e-05
-0.0117547 0.00101738 1e-05
-0.0115068 0.00101827 1e-05
-0.0112589 0.00101918 1e-05
-0.0110111 0.00102011 1e-05
-0.0107632 0.00102107 1e-05
-0.0105252 0.00102213 1e-05
-0.0102873 0.00102311 1e-05
-0.0100493 0.0010241 1e-05
-0.00981133 0.00102511 1e-05
-0.00957337 0.00102614 1e-05
-0.00934491 0.00102721 1e-05
-0.00911645 0.00102824 1e-05
-0.00888799 0.00102928 1e-05
-0.00865954 0.00103034 1e-05
-0.00843108 0.0010314 1e-05
-0.00821175 0.00103247 1e-05
-0.00799242 0.00103352 1e-05
-0.00777309 0.00103458 1e-05
-0.00755376 0.00103565 1e-05
-0.00733443 0.00103673 1e-05
-0.00719322 0.00103743 1e-05
-0.007052 0.00103813 1e-05
-0.00691078 0.00103884 1e-05
-0.00676957 0.00103955 1e-05
-0.00662944 0.00104025 1e-05
-0.00655987 0.0010406 1e-05
-0.0064903 0.00104096 1e-05
-0.00642074 0.00104131 1e-05
-0.00635117 0.00104166 1e-05
-0.0062816 0.00104202 1e-05
-0.00607944 0.00104305 1e-05
-0.00587729 0.00104408 1e-05
-0.00567514 0.00104512 1e-05
-0.00547298 0.00104616 1e-05
-0.00527083 0.0010472 1e-05
-0.00507675 0.0010482 1e-05
-0.00488267 0.00104921 1e-05
-0.0046886 0.00105022 1e-05
-0.00449452 0.00105123 1e-05
-0.00430044 0.00105224 1e-05
-0.00411412 0.00105321 1e-05
-0.0039278 0.00105418 1e-05
-0.00374147 0.00105516 1e-05
-0.00355515 0.00105613 1e-05
-0.00336883 0.00105711 1e-05
-0.00318995 0.00105804 1e-05
-0.00301107 0.00105897 1e-05
-0.00283219 0.00105991 1e-05
-0.00265331 0.00106084 1e-05
-0.00247443 0.00106178 1e-05
-0.0023027 0.00106267 1e-05
-0.00213097 0.00106356 1e-05
-0.00195924 0.00106446 1e-05
-0.0017875 0.00106536 1e-05
-0.00161577 0.00106625 1e-05
-0.0014509 0.0010671 1e-05
-0.00128603 0.00106796 1e-05
-0.00112116 0.00106881 1e-05
-0.000956289 0.00106965 1e-05
-0.000791418 0.00107049 1e-05
-0.000633135 0.00107128 1e-05
-0.000474851 0.00107207 1e-05
-0.000316567 0.00107284 1e-05
-0.000158283 0.00107359 1e-05
0 0.00107433 1e-05
0.000105677 0.00107481 1e-05
0.000211355 0.00107528 1e-05
0.000317032 0.00107574 1e-05
0.00042271 0.00107619 1e-05
0.000528387 0.00107662 1e-05
0.000634886 0.00107704 1e-05
0.000741385 0.00107745 1e-05
0.000847885 0.00107786 1e-05
0.000954384 0.00107825 1e-05
0.00106088 0.00107863 1e-05
0.00116821 0.001079 1e-05
0.00127554 0.00107936 1e-05
0.00138286 0.00107971 1e-05
0.00149019 0.00108006 1e-05
0.00159752 0.00108039 1e-05
0.00170568 0.0010807 1e-05
0.00181384 0.00108101 1e-05
0.001922 0.00108132 1e-05
0.00203016 0.00108161 1e-05
0.00213833 0.00108189 1e-05
0.00224733 0.00108216 1e-05
0.00235633 0.00108243 1e-05
0.00246533 0.00108269 1e-05
0.00257434 0.00108294 1e-05
0.00268334 0.00108319 1e-05
0.00279319 0.00108342 1e-05
0.00290304 0.00108365 1e-05
0.00301289 0.00108388 1e-05
0.00312274 0.0010841 1e-05
0.00323259 0.00108431 1e-05
0.00334329 0.00108451 1e-05
0.003454 0.00108471 1e-05
0.0035647 0.00108491 1e-05
0.0036754 0.0010851 1e-05
0.00378611 0.00108529 1e-05
0.00389767 0.00108546 1e-05
0.00400924 0.00108564 1e-05
0.0041208 0.00108581 1e-05
0.00423237 0.00108598 1e-05
0.00434393 0.00108614 1e-05
0.00445636 0.00108629 1e-05
0.00456879 0.00108644 1e-05
0.00468123 0.00108659 1e-05
0.00479366 0.00108673 1e-05
0.00490609 0.00108687 1e-05
0.0050194 0.001087 1e-05
0.0051327 0.00108713 1e-05
0.00524601 0.00108726 1e-05
0.00535932 0.00108738 1e-05
0.00547262 0.00108749 1e-05
0.00556698 0.00108758 1e-05
0.00566134 0.00108767 1e-05
0.0057557 0.00108776 1e-05
0.00585006 0.00108784 1e-05
0.00594045 0.00108791 1e-05
0.00596107 0.00108793 1e-05
0.00598169 0.00108795 1e-05
0.00600231 0.00108796 1e-05
0.00602293 0.00108798 1e-05
0.00604356 0.001088 1e-05
0.00615863 0.00108808 1e-05
0.00627371 0.00108817 1e-05
0.00638878 0.00108824 1e-05
0.00650386 0.00108832 1e-05
0.00661893 0.00108838 1e-05
0.0067349 0.00108845 1e-05
0.00685087 0.00108851 1e-05
0.00696684 0.00108856 1e-05
0.00708281 0.00108861 1e-05
0.00719878 0.00108865 1e-05
0.00731565 0.00108869 1e-05
0.00743252 0.00108872 1e-05
0.00754939 0.00108875 1e-05
0.00766626 0.00108877 1e-05
0.00778313 0.00108879 1e-05
0.00790091 0.00108879 1e-05
0.00801869 0.0010888 1e-05
0.00813647 0.0010888 1e-05
0.00825425 0.0010888 1e-05
0.00837203 0.00108879 1e-05
0.00849073 0.00108876 1e-05
0.00860942 0.00108874 1e-05
0.00872812 0.00108871 1e-05
0.00884682 0.00108868 1e-05
0.00896551 0.00108864 1e-05
0.00908513 0.00108858 1e-05
0.00920475 0.00108853 1e-05
0.00932437 0.00108847 1e-05
0.00944398 0.00108841 1e-05
0.0095636 0.00108834 1e-05
0.00968415 0.00108824 1e-05
0.0098047 0.00108816 1e-05
0.00992525 0.00108807 1e-05
0.0100458 0.00108797 1e-05
0.0101663 0.00108787 1e-05
0.0102878 0.00108774 1e-05
0.0104093 0.00108762 1e-05
0.0105308 0.0010875 1e-05
0.0106523 0.00108736 1e-05
0.0107738 0.00108723 1e-05
0.0108962 0.00108706 1e-05
0.0110186 0.0010869 1e-05
0.0111411 0.00108674 1e-05
0.0112635 0.00108657 1e-05
0.0113859 0.0010864 1e-05
0.0115093 0.00108619 1e-05
0.0116327 0.001086 1e-05
0.0117561 0.0010858 1e-05
0.0118795 0.00108559 1e-05
0.0120028 0.00108538 1e-05
0.0121272 0.00108513 1e-05
0.0122515 0.0010849 1e-05
0.0123759 0.00108466 1e-05
0.0125002 0.00108441 1e-05
0.0126245 0.00108416 1e-05
0.0127498 0.00108387 1e-05
0.0128752 0.00108359 1e-05
0.0130005 0.00108331 1e-05
0.0131258 0.00108302 1e-05
0.0132511 0.00108272 1e-05
0.0133774 0.00108239 1e-05
0.0135036 0.00108207 1e-05
0.0136299 0.00108174 1e-05
0.0137562 0.00108141 1e-05
0.0138825 0.00108106 1e-05
0.0140098 0.00108069 1e-05
0.014137 0.00108032 1e-05
0.0142643 0.00107995 1e-05
0.0143915 0.00107957 1e-05
0.0145188 0.00107918 1e-05
0.0146471 0.00107875 1e-05
0.0147753 0.00107834 1e-05
0.0149036 0.00107792 1e-05
0.0150318 0.00107749 1e-05
0.0151601 0.00107705 1e-05
0.0152893 0.00107658 1e-05
0.0154186 0.00107612 1e-05
0.0155478 0.00107565 1e-05
0.0156771 0.00107517 1e-05
0.0158063 0.00107468 1e-05
0.0159366 0.00107416 1e-05
0.0160668 0.00107364 1e-05
0.0161971 0.00107312 1e-05
0.0163274 0.00107259 1e-05
0.0164576 0.00107204 1e-05
0.0165889 0.00107148 1e-05
0.0167201 0.00107091 1e-05
0.0168514 0.00107033 1e-05
0.0169827 0.00106975 1e-05
0.0171139 0.00106915 1e-05
0.0172462 0.00106854 1e-05
0.0173785 0.00106791 1e-05
0.0175108 0.00106728 1e-05
0.0176431 0.00106664 1e-05
0.0177754 0.00106599 1e-05
0.0179087 0.00106533 1e-05
0.018042 0.00106465 1e-05
0.0181753 0.00106396 1e-05
0.0183087 0.00106327 1e-05
0.018442 0.00106256 1e-05
0.0185763 0.00106184 1e-05
0.0187107 0.00106111 1e-05
0.018845 0.00106037 1e-05
0.0189794 0.00105961 1e-05
0.0191137 0.00105885 1e-05
0.0192491 0.00105808 1e-05
0.0193845 0.0010573 1e-05
0.0195199 0.00105649 1e-05
0.0196553 0.00105568 1e-05
0.0197907 0.00105487 1e-05
0.0199272 0.00105404 1e-05
0.0200636 0.0010532 1e-05
0.0202001 0.00105234 1e-05
0.0203365 0.00105147 1e-05
0.020473 0.0010506 1e-05
0.0206105 0.00104972 1e-05
0.020748 0.00104882 1e-05
0.0208855 0.0010479 1e-05
0.021023 0.00104697 1e-05
0.0211606 0.00104605 1e-05
0.0212991 0.00104512 1e-05
0.0214377 0.00104416 1e-05
0.0215763 0.00104318 1e-05
0.0217149 0.00104219 1e-05
0.0218535 0.00104121 1e-05
0.0219931 0.00104022 1e-05
0.0221328 0.00103921 1e-05
0.0222724 0.00103817 1e-05
0.0224121 0.00103712 1e-05
0.0225517 0.00103608 1e-05
0.0226925 0.00103504 1e-05
0.0228332 0.00103397 1e-05
0.022974 0.00103288 1e-05
0.0231147 0.00103177 1e-05
0.0232555 0.00103067 1e-05
0.0233973 0.00102958 1e-05
0.0235391 0.00102845 1e-05
0.023681 0.0010273 1e-05
0.0238228 0.00102613 1e-05
0.0239647 0.00102498 1e-05
0.0241076 0.00102383 1e-05
0.0242505 0.00102264 1e-05
0.0243935 0.00102143 1e-05
0.0245364 0.00102021 1e-05
0.0246794 0.001019 1e-05
0.0248234 0.00101779 1e-05
0.0249675 0.00101655 1e-05
0.0251115 0.00101528 1e-05
0.0252556 0.001014 1e-05
0.0253996 0.00101273 1e-05
0.0255448 0.00101147 1e-05
0.02569 0.00101017 1e-05
0.0258351 0.00100884 1e-05
0.0259803 0.0010075 1e-05
0.0261255 0.00100618 1e-05
0.0262718 0.00100486 1e-05
0.0264181 0.0010035 1e-05
0.0265644 0.00100211 1e-05
0.0267107 0.00100072 1e-05
0.026857 0.000999335 1e-05
0.0270044 0.000997959 1e-05
0.0271519 0.000996547 1e-05
0.0272993 0.000995099 1e-05
0.0274468 0.000993643 1e-05
0.0275942 0.000992204 1e-05
0.0277428 0.000990769 1e-05
0.0278914 0.000989298 1e-05
0.0280399 0.000987793 1e-05
0.0281885 0.000986281 1e-05
0.0283371 0.000984782 1e-05
0.0284869 0.000983288 1e-05
0.0286366 0.000981758 1e-05
0.0287863 0.000980197 1e-05
0.0289361 0.000978629 1e-05
0.0290858 0.000977071 1e-05
0.0292367 0.000975517 1e-05
0.0293876 0.000973927 1e-05
0.0295385 0.00097231 1e-05
0.0296894 0.000970685 1e-05
0.0298403 0.000969067 1e-05
0.0299924 0.000967451 1e-05
0.0301445 0.0009658 1e-05
0.0302966 0.000964125 1e-05
0.0304486 0.000962443 1e-05
0.0306007 0.000960763 1e-05
0.030754 0.000959085 1e-05
0.0309072 0.000957371 1e-05
0.0310605 0.000955638 1e-05
0.0312138 0.000953897 1e-05
0.031367 0.000952154 1e-05
0.0315215 0.000950412 1e-05
0.0316759 0.000948635 1e-05
0.0318304 0.000946841 1e-05
0.0319848 0.000945039 1e-05
0.0321393 0.000943233 1e-05
0.0322949 0.000941425 1e-05
0.0324506 0.000939582 1e-05
0.0326062 0.000937727 1e-05
0.0327619 0.000935862 1e-05
0.0329175 0.000933989 1e-05
0.0330744 0.000932114 1e-05
0.0332313 0.000930204 1e-05
0.0333881 0.000928285 1e-05
[...]
POINT_DATA 11925
 FIELD attributes 2
p 1 11925 float
-5.95477 -5.94712 -5.9391 -5.93104 -5.92295 -5.92345 -5.89638 -5.91247 -5.92854 -5.9446 -6.00575 -6.01187 -6.05068 -6.0895 -6.12832 -6.1899 -6.18912 -6.21612 -6.24314 -6.27017 -6.31667 -6.32043 -6.34375 -6.36709 -6.39045 -6.42854 -6.4377 -6.45938 -6.48107 -6.50278 -6.53392 -6.54516 -6.56432 -6.58348 -6.60265 -6.62759 -6.63975 -6.65677 -6.67379 -6.69082 -6.71116 -6.72402 -6.73962 -6.75523 -6.77084 -6.78809 -6.8014 -6.81603 -6.83067 -6.84531 -6.86047 -6.86939 -6.87872 -6.88806 -6.89739 -6.90665 -6.91125 -6.91585 -6.92044 -6.92504 -6.92948 -6.94298 -6.95636 -6.96974 -6.98312 -6.996 -7.00938 -7.0224 -7.03541 -7.04842 -7.06072 -7.07406 -7.08686 -7.09966 -7.11247 -7.12445 -7.13789 -7.15071 -7.16354 -7.17636 -7.18834 -7.20236 -7.2158 -7.22925 -7.2427 -7.25536 -7.27143 -7.28736 -7.30328 -7.31921 -7.33447 -7.35242 -7.36976 -7.38711 -7.40446 -7.4202 -7.43414 -7.44576 -7.45737 -7.46899 -7.47833 -7.4882 -7.49491 -7.50162 -7.50833 -7.51264 -7.52154 -7.52719 -7.53285 -7.5385 -7.5414 -7.55025 -7.55555 -7.56085 -7.56616 -7.56824 -7.57569 -7.5797 -7.5837 -7.58769 -7.58863 -7.59444 -7.59739 -7.60034 -7.60328 -7.60373 -7.60826 -7.61063 -7.61301 -7.61538 -7.61594 -7.61937 -7.62131 -7.62326 -7.62521 -7.626 -7.62848 -7.63006 -7.63164 -7.63322 -7.63418 -7.63594 -7.63724 -7.63854 -7.63984 -7.64092 -7.642 -7.64291 -7.64383 -7.64475 -7.64563 -7.64583 -7.64603 -7.64623 -7.64643 -7.64665 -7.64764 -7.64864 -7.64964 -7.65064 -7.65167 -7.65263 -7.65358 -7.65453 -7.65548 -7.65645 -7.65743 -7.65839 -7.65936 -7.66032 -7.66131 -7.6623 -7.66332 -7.66433 -7.66534 -7.66647 -7.6674 -7.66848 -7.66956 -7.67064 -7.67199 -7.67278 -7.67394 -7.67509 -7.67624 -7.67795 -7.6785 -7.67974 -7.68097 -7.68221 -7.68437 -7.68461 -7.68593 -7.68726 -7.68858 -7.6913 -7.69115 -7.69256 -7.69398 -7.6954 -7.69873 -7.69816 -7.69967 -7.70118 -7.70269 -7.70668 -7.70567 -7.70727 -7.70887 -7.71048 -7.71515 -7.7137 -7.7154 -7.7171 -7.71879 -7.72412 -7.72228 -7.72407 -7.72586 -7.72765 -7.73358 -7.73141 -7.7333 -7.73518 -7.73707 -7.74353 -7.74111 -7.74309 -7.74507 -7.74705 -7.75396 -7.75152 -7.75346 -7.75554 -7.758 -7.76485 -7.76274 -7.7644 -7.76657 -7.7695 -7.77621 -7.77448 -7.77591 -7.77817 -7.78152 -7.78801 -7.78672 -7.78796 -7.79031 -7.79401 -7.80023 -7.79941 -7.80054 -7.80299 -7.80697 -7.81288 -7.81254 -7.81364 -7.81617 -7.82036 -7.82596 -7.82611 -7.82725 -7.82988 -7.8342 -7.83947 -7.84011 -7.84136 -7.84408 -7.84846 -7.85341 -7.85451 -7.85592 -7.85873 -7.8631 -7.86774 -7.86927 -7.87089 -7.87379 -7.87809 -7.88246 -7.88437 -7.88629 -7.8893 -7.89342 -7.89753 -7.8998 -7.90208 -7.90516 -7.90906 -7.91297 -7.91555 -7.91813 -7.92129 -7.92502 -7.92874 -7.9316 -7.93446 -7.93768 -7.94127 -7.94486 -7.94795 -7.95104 -7.95432 -7.95781 -7.96129 -7.96458 -7.96786 -7.9712 -7.97462 -7.97804 -7.98147 -7.98491 -7.98832 -7.99169 -7.99507 -7.99863 -8.0022 -8.00565 -8.00901 -8.01237 -8.01603 -8.01968 -8.02318 -8.02656 -8.02993 -8.03365 -8.03735 -8.04089 -8.04432 -8.04771 -8.05149 -8.0552 -8.05879 -8.06227 -8.0657 -8.0695 -8.07322 -8.07684 -8.08038 -8.08386 -8.08767 -8.09139 -8.09504 -8.09864 -8.10216 -8.10597 -8.10969 -8.11337 -8.11702 -8.12059 -8.1244 -8.12811 -8.13181 -8.13551 -8.13912 -8.14291 -8.14662 -8.15034 -8.15405 -8.15771 -8.16146 -8.16518 -8.16889 -8.17261 -8.1763 -8.18002 -8.18373 -8.18744 -8.19115 -8.19485 -8.19854 -8.20223 -8.20592 -8.20962 -8.21331 -8.21696 -8.22062 -8.22429 -8.22795 -8.23162 -8.23523 -8.23885 -8.24247 -8.24609 -8.24972 -8.25067 -8.25163 -8.25259 -8.25356 -8.2545 -8.25712 -8.25974 -8.26236 -8.26498 -8.2676 -8.27111 -8.27462 -8.27813 -8.28164 -8.28516 -8.2886 -8.29203 -8.29545 -8.29888 -8.30231 -8.30567 -8.309 -8.31233 -8.31566 -8.31897 -8.32225 -8.32547 -8.32869 -8.33191 -8.3351 -8.33829 -8.34138 -8.34447 -8.34756 -8.3506 -8.35367 -8.35664 -8.35958 -8.36251 -8.36539 -8.36832 -8.37115 -8.37393 -8.37667 -8.37936 -8.38212 -8.38481 -8.38741 -8.38993 -8.39242 -8.39499 -8.39753 -8.39992 -8.4022 -8.40446 -8.40682 -8.40919 -8.41134 -8.41335 -8.41536 -8.41749 -8.41963 -8.42155 -8.42329 -8.42504 -8.42691 -8.42879 -8.43046 -8.43191 -8.43336 -8.43496 -8.43657 -8.43796 -8.43909 -8.44023 -8.44153 -8.44282 -8.44391 -8.44471 -8.4455 -8.44647 -8.44738 -8.44811 -8.44862 -8.44904 -8.44964 -8.45013 -8.45048 -8.45068 -8.45069 -8.4509 -8.45092 -8.45086 -8.45074 -8.45032 -8.45011 -8.44961 -8.44911 -8.4486 -8.44776 -8.44702 -8.44603 -8.44504 -8.44406 -8.44284 -8.44151 -8.44 -8.43849 -8.43699 -8.43536 -8.43364 -8.43182 -8.43001 -8.4282 -8.4265 -8.42623 -8.42597 -8.4257 -8.42543 -8.42516 -8.42256 -8.41996 -8.41735 -8.41475 -8.41212 -8.40896 -8.40571 -8.40246 -8.39922 -8.39589 -8.39213 -8.38819 -8.38425 -8.38031 -8.37622 -8.3718 -8.36715 -8.36246 -8.35772 -8.35285 -8.34766 -8.34233 -8.33684 -8.33122 -8.32552 -8.3195 -8.31345 -8.30711 -8.30053 -8.29394 -8.28703 -8.28013 -8.2729 -8.26536 -8.25783 -8.24998 -8.24214 -8.23398 -8.22545 -8.21692 -8.20807 -8.1992 -8.19 -8.18049 -8.1709 -8.161 -8.15092 -8.14063 -8.13021 -8.11951 -8.10851 -8.09713 -8.0857 -8.07428 -8.06248 -8.05019 -8.03756 -8.02494 -8.01232 -7.99955 -7.98986 -7.98003 -7.97019 -7.96036 -7.95107 -7.94694 -7.94282 -7.9387 -7.93458 -7.93042 -7.91534 -7.90023 -7.88512 -7.87003 -7.85474 -7.83852 -7.82209 -7.80566 -7.78925 -7.77245 -7.75502 -7.73728 -7.71951 -7.70158 -7.68338 -7.66457 -7.64564 -7.62649 -7.60696 -7.58735 -7.56713 -7.54692 -7.5263 -7.50526 -7.48421 -7.46256 -7.44092 -7.41884 -7.39634 -7.37384 -7.35074 -7.32753 -7.30392 -7.2801 -7.25613 -7.23156 -7.2066 -7.1815 -7.15642 -7.13098 -7.1048 -7.0782 -7.0516 -7.02502 -6.99833 -6.98575 -6.97303 -6.96031 -6.9476 -6.9353 -6.91991 -6.90452 -6.88914 -6.87376 -6.85815 -6.82885 -6.79939 -6.76993 -6.74048 -6.7104 -6.67991 -6.64898 -6.61804 -6.58682 -6.55511 -6.52313 -6.49106 -6.45864 -6.42551 -6.39233 -6.35887 -6.32542 -6.29138 -6.25676 -6.22213 -6.18721 -6.15222 -6.11657 -6.08065 -6.04459 -6.00824 -5.97137 -5.9343 -5.89725 -5.85985 -5.82185 -5.78339 -5.74494 -5.7065 -5.66804 -5.66626 -5.66446 -5.66266 -5.66085 -5.65906 -5.62116 -5.58328 -5.54541 -5.50755 -5.46922 -5.42851 -5.38753 -5.34656 -5.30542 -5.26372 -5.22179 -5.17978 -5.13756 -5.09471 -5.05179 -5.00862 -4.96547 -4.92183 -4.87776 -4.83368 -4.78934 -4.74483 -4.69989 -4.65486 -4.60967 -4.56422 -4.51819 -4.47217 -4.42616 -4.38006 -4.36155 -4.34289 -4.32423 -4.30556 -4.28734 -4.25893 -4.23053 -4.20213 -4.17374 -4.14508 -4.09728 -4.04938 -4.0015 -3.95353 -3.90509 -3.85644 -3.80776 -3.75901 -3.7098 -3.66053 -3.61104 -3.56157 -3.51178 -3.46179 -3.41178 -3.36153 -3.31112 -3.2605 -3.20988 -3.15921 -3.10971 -3.05995 -3.0102 -2.96047 -2.91323 -2.91122 -2.90922 -2.90721 -2.90521 -2.90319 -2.85138 -2.79958 -2.7478 -2.69602 -2.64394 -2.59161 -2.53933 -2.48707 -2.43463 -2.38206 -2.32929 -2.27654 -2.22374 -2.17085 -2.11794 -2.06482 -2.01166 -1.95838 -1.90514 -1.85197 -1.79856 -1.74504 -1.69153 -1.63804 -1.58452 -1.58427 -1.58401 -1.58376 -1.58351 -1.58326 -1.52977 -1.47629 -1.42282 -1.36935 -1.31575 -1.26173 -1.20785 -1.15404 -1.10017 -1.04625 -0.992179 -0.938114 -0.884119 -0.830258 -0.77637 -0.722312 -0.668267 -0.614236 -0.560212 -0.506418 -0.468818 -0.431256 -0.393698 -0.356144 -0.319517 -0.30294 -0.286363 -0.269787 -0.253212 -0.236634 -0.182642 -0.128774 -0.0749119 -0.021064 0.0327717 0.0867233 0.140618 0.194245 0.24779 0.301361 0.355058 0.408748 0.462315 0.515643 0.568901 0.622294 0.675543 0.728775 0.782003 0.835176 0.842766 0.850332 0.857898 0.865464 0.873 0.918463 0.963923 1.00938 1.05483 1.1002 1.1532 1.20593 1.25857 1.3111 1.3636 1.41618 1.46875 1.52111 1.57314 1.62518 1.67731 1.72931 1.78122 1.83314 1.88482 1.90714 1.92937 1.95161 1.97384 1.99587 2.02523 2.05458 2.08394 2.1133 2.14255 2.19402 2.24515 2.29629 2.34731 2.39823 2.44924 2.50024 2.55091 2.60129 2.65168 2.70217 2.75254 2.80278 2.85301 2.90287 2.93334 2.96366 2.99399 3.02431 3.05434 3.07386 3.09338 3.1129 3.13242 3.15191 3.20146 3.25083 3.30021 3.34955 3.39881 3.44796 3.4971 3.54591 3.5946 3.64331 3.69192 3.74051 3.78897 3.83726 3.88542 3.93349 3.98141 4.02933 4.07725 4.12518 4.12544 4.12569 4.12595 4.1262 4.12646 4.17379 4.22111 4.26844 4.31576 4.36291 4.41029 4.45752 4.50458 4.55147 4.59835 4.64521 4.69208 4.73876 4.78517 4.83155 4.87792 4.92412 4.97029 5.01647 5.06259 5.06854 5.07447 5.0804 5.08633 5.09225 5.13218 5.17212 5.21205 5.25198 5.29173 5.33743 5.38299 5.42841 5.47365 5.51888 5.56413 5.60938 5.65445 5.69928 5.74407 5.7889 5.83353 5.87815 5.92277 5.96739 5.96845 5.96951 5.97056 5.97161 5.97267 6.016 6.05934 6.10267 6.14599 6.18913 6.23336 6.27754 6.32153 6.36533 6.40914 6.45299 6.49681 6.54046 6.58404 6.62749 6.65855 6.68949 6.72041 6.75133 6.78204 6.7945 6.80697 6.81943 6.83189 6.8443 6.88752 6.93064 6.97375 7.01679 7.0597 7.10267 7.14564 7.18842 7.231 7.27359 7.31623 7.35875 7.40118 7.44362 7.48599 7.49552 7.50501 7.5145 7.52399 7.53346 7.56622 7.59898 7.63174 7.66447 7.69707 7.73919 7.78124 7.8232 7.86495 7.9067 7.9485 7.99026 8.03184 8.07337 8.1148 8.13934 8.16376 8.18816 8.21256 8.23695 8.25386 8.27078 8.28769 8.30459 8.32141 8.36262 8.40369 8.44477 8.48569 8.52653 8.5674 8.60826 8.64894 8.68943 8.72991 8.76475 8.79942 8.83404 8.86866 8.90361 8.90919 8.91477 8.92035 8.92593 8.93148 8.97155 9.01158 9.05161 9.09155 9.13132 9.17107 9.21082 9.25036 9.2897 9.32902 9.36832 9.40742 9.44643 9.48545 9.52439 9.52865 9.53288 9.53711 9.54134 9.54559 9.58005 9.61452 9.64898 9.68341 9.71763 9.75601 9.79436 9.83244 9.87024 9.90801 9.94569 9.98334 10.0209 10.0584 10.0958 10.1134 10.1305 10.1477 10.1648 10.1826 10.2019 10.2211 10.2404 10.2596 10.2784 10.3141 10.3505 10.387 10.4247 10.463 10.5011 10.5391 10.5702 10.594 10.6177 10.641 10.6765 10.7175 10.7584 10.8054 10.817 10.8256 10.8323 10.8389 10.8458 10.8774 10.909 10.9405 10.9661 10.9819 11.0021 11.0222 11.0472 11.0771 11.1069 11.1328 11.1572 11.1808 11.2044 11.2313 11.2343 11.2373 11.2403 11.2432 11.2459 11.2714 11.2966 11.3217 11.3463 11.3701 11.3933 11.4165 11.4384 11.4589 11.4792 11.4939 11.5075 11.5207 11.5338 11.5492 11.5534 11.5577 11.5619 11.5661 11.5699 11.5853 11.5998 11.6142 11.6275 11.6396 11.6504 11.6611 11.6696 11.6759 11.682 11.6866 11.6888 11.6903 11.6916 11.6923 11.6918 11.6908 11.6898 11.6888 11.6877 11.6843 11.6808 11.6772 11.6735 11.6672 11.6571 11.6452 11.6323 11.6163 11.5995 11.5799 11.5602 11.5369 11.5099 11.4827 11.4524 11.4191 11.3839 11.3486 11.3104 11.2812 11.2491 11.2169 11.1847 11.1448 11.1313 11.1178 11.1044 11.0909 11.0763 11.0182 10.9586 10.8988 10.8389 10.7736 10.7033 10.6295 10.5542 10.475 10.3934 10.3067 10.2199 10.1261 10.0258 9.92535 9.81934 9.71323 9.6009 9.48241 9.36377 9.23909 9.11048 8.97416 8.83353 8.68765 8.53489 8.37945 8.22336 8.06721 7.90852 7.73551 7.54135 7.34724 7.15317 6.94906 6.75019 6.56113 6.37201 6.18281 5.93902 5.93783 5.93644 5.93505 5.93366 5.93227 5.64694 5.36112 5.07483 4.78809 4.46408 4.17047 3.95138 3.7313 3.51028 3.4294 3.29553 2.69147 2.09511 1.36616 0