/*--------------------------------*- C++ -*----------------------------------*\
| =========                 |                                                 |
| \\      /  F ield         | OpenFOAM: The Open Source CFD Toolbox           |
|  \\    /   O peration     | Version:  2.2.x                                 |
|   \\  /    A nd           | Web:      www.OpenFOAM.org                      |
|    \\/     M anipulation  |                                                 |
\*---------------------------------------------------------------------------*/
FoamFile
{
    version     2.0;
    format      ascii;
    class       volScalarField;
    location    "750";
    object      epsilon;
}
// * * * * * * * * * * * * * * * * * * * * * * * * * * * * * * * * * * * * * //

dimensions      [0 2 -3 0 0 0 0];

internalField   nonuniform List<scalar> 
12225
(
1739.11
3020.51
4030.08
4714.52
5131.93
5357.71
5455.52
5472
5438.96
5377.2
5299.97
5215.57
5129.11
5043.66
4960.99
4882.03
4806.05
4739.57
187.432
345.311
471.696
572.302
644.889
692.993
722.813
740.095
749.26
753.446
754.772
754.619
753.862
753.044
752.542
752.887
756.343
763.798
41.8453
72.5092
98.5908
120.691
138.683
152.661
163.128
170.721
176.066
179.715
182.126
183.665
184.612
185.18
185.536
185.841
186.286
186.729
20.3598
27.9831
35.4716
42.3256
48.3647
53.5242
57.833
61.3684
64.2261
66.5054
68.3012
69.6996
70.776
71.5951
72.2124
72.6767
73.0256
73.2416
16.0562
18.2138
20.6758
23.1517
25.4998
27.647
29.5647
31.2498
32.7124
33.9697
35.0417
35.9494
36.713
37.3516
37.8826
38.3214
38.6794
38.9546
15.0131
15.5456
16.3131
17.1967
18.1162
19.0202
19.8784
20.6746
21.4016
22.0579
22.645
23.1664
23.6267
24.031
24.3844
24.6916
24.9564
25.1778
14.7583
14.7814
14.9213
15.1496
15.4364
15.7557
16.0877
16.4187
16.7394
17.0439
17.3288
17.5926
17.8345
18.0547
18.2541
18.4333
18.5932
18.7324
14.7063
14.5999
14.5497
14.5524
14.5992
14.6794
14.7827
14.9004
15.0257
15.1534
15.2798
15.4022
15.5189
15.6288
15.731
15.8253
15.9114
15.9874
14.6923
14.5448
14.4247
14.3339
14.2712
14.2336
14.2169
14.2168
14.2293
14.251
14.2791
14.3112
14.3454
14.3804
14.4151
14.4487
14.4805
14.5092
14.6883
14.5275
14.3816
14.2517
14.1383
14.041
13.9587
13.8899
13.8329
13.786
13.7477
13.7163
13.6906
13.6695
13.6521
13.6374
13.6249
13.6137
14.6872
14.5228
14.3691
14.2261
14.0938
13.9722
13.8608
13.7593
13.6669
13.583
13.5069
13.4378
13.3749
13.3176
13.2653
13.2173
13.1732
13.1327
14.6868
14.5216
14.3659
14.2194
14.0816
13.9521
13.8307
13.717
13.6105
13.5109
13.4178
13.3307
13.2494
13.1733
13.1021
13.0354
12.973
12.9149
14.6866
14.5211
14.365
14.2176
14.0785
13.9471
13.8229
13.7057
13.5949
13.4902
13.3913
13.2978
13.2094
13.1259
13.0469
12.9721
12.9014
12.8352
14.6865
14.5209
14.3646
14.217
14.0775
13.9456
13.8209
13.7028
13.5909
13.4849
13.3845
13.2892
13.1988
13.113
13.0316
12.9542
12.8808
12.8118
14.6864
14.5207
14.3643
14.2166
14.077
13.9449
13.82
13.7017
13.5895
13.4832
13.3824
13.2867
13.1958
13.1095
13.0274
12.9494
12.8752
12.8054
14.6863
14.5206
14.3641
14.2163
14.0766
13.9445
13.8194
13.701
13.5887
13.4823
13.3813
13.2855
13.1944
13.1079
13.0257
12.9475
12.8731
12.8031
14.6863
14.5205
14.364
14.2161
14.0764
13.9442
13.8191
13.7005
13.5882
13.4817
13.3806
13.2847
13.1936
13.1069
13.0246
12.9463
12.8718
12.8017
14.6863
14.5205
14.364
14.2161
14.0763
13.9441
13.8189
13.7003
13.588
13.4814
13.3803
13.2843
13.1931
13.1064
13.024
12.9457
12.8712
12.801
14.6863
14.5205
14.364
14.2161
14.0763
13.9441
13.8189
13.7003
13.588
13.4814
13.3803
13.2843
13.1931
13.1064
13.024
12.9456
12.8711
12.801
14.6863
14.5206
14.3641
14.2162
14.0765
13.9443
13.8191
13.7006
13.5883
13.4818
13.3808
13.2849
13.1938
13.1073
13.0251
12.9469
12.8726
12.8027
14.6864
14.5207
14.3642
14.2165
14.0769
13.9449
13.82
13.7019
13.5901
13.4842
13.3839
13.2889
13.1988
13.1134
13.0324
12.9556
12.8828
12.8144
14.6865
14.5209
14.3648
14.2177
14.0791
13.9486
13.8259
13.7104
13.6019
13.4999
13.4041
13.314
13.2295
13.15
13.0752
13.005
12.9389
12.8774
14.6868
14.5224
14.369
14.2265
14.095
13.9742
13.8637
13.7628
13.6711
13.5877
13.512
13.4432
13.3806
13.3236
13.2715
13.224
13.1805
13.1411
14.6896
14.5346
14.3997
14.286
14.1933
14.12
14.0639
14.0227
13.9939
13.9753
13.9649
13.9609
13.9619
13.9667
13.9742
13.9836
13.9944
14.0062
14.712
14.6198
14.5883
14.6113
14.6786
14.7791
14.9026
15.0408
15.1873
15.337
15.4862
15.6324
15.7736
15.9086
16.0367
16.1574
16.2705
16.3761
14.8713
15.1221
15.5436
16.0692
16.6493
17.249
17.8449
18.4228
18.9736
19.4926
19.977
20.4262
20.8403
21.2205
21.5681
21.885
22.173
22.4339
15.8759
17.706
19.7886
21.8987
23.9445
25.8788
27.679
29.3366
30.8502
32.2227
33.4597
34.5688
35.5587
36.4386
37.2177
37.9049
38.5086
39.0369
22.1652
31.1005
39.3161
46.8941
53.8923
60.2815
66.05
71.2042
75.7627
79.7548
83.2195
86.202
88.7506
90.9135
92.7366
94.261
95.52
96.5331
68.0189
114.9
154.783
191.789
226.036
256.864
283.963
307.308
327.06
343.508
357.016
367.974
376.765
383.74
389.212
393.437
396.6
398.708
723.143
1065.45
1375.75
1655.21
1913.04
2142.31
2339.72
2504.91
2639.56
2746.51
2829.17
2891.01
2935.4
2965.37
2983.59
2992.36
2993.66
2988.96
0.298528
0.255466
0.357966
0.445108
0.536917
0.632153
0.742333
0.905536
1.12441
1.39695
1.72072
2.0935
2.51402
2.98154
3.49557
4.05571
4.6617
5.31337
6.01072
6.75392
7.5433
8.37938
9.26286
10.1946
11.1758
12.2075
13.2913
14.4287
15.6217
16.8721
18.1824
19.5549
20.9926
22.4988
24.077
25.7316
27.4677
29.2914
31.2101
33.2334
35.3728
37.6436
40.0654
42.6496
45.3603
48.2003
51.1744
54.2873
57.5439
60.9489
64.5073
68.2235
72.1023
76.1483
80.3659
84.7596
89.3334
94.0916
99.0381
104.177
109.511
115.043
120.778
126.717
132.863
139.219
145.785
152.563
159.554
166.759
174.178
181.81
189.654
197.709
205.973
214.443
223.115
231.987
241.053
250.308
259.745
269.358
279.139
289.08
299.169
309.397
319.751
330.22
340.788
351.441
362.164
372.939
383.751
394.581
405.413
416.233
427.026
437.785
448.506
459.199
469.889
480.628
491.266
501.715
511.96
521.982
531.764
541.287
550.531
559.479
568.111
576.409
584.355
591.93
599.118
605.9
612.261
618.185
623.656
628.661
633.188
637.223
640.758
643.782
646.288
648.269
649.72
650.637
651.018
650.862
650.173
648.953
647.207
644.942
642.166
638.889
635.123
630.882
626.183
621.04
615.47
609.494
603.134
596.411
589.345
581.959
574.282
566.339
558.148
549.737
541.138
532.371
523.456
514.431
505.31
496.118
486.894
477.634
468.383
459.174
449.953
440.888
432.066
424.207
419.056
414.445
409.982
405.622
401.362
397.205
393.157
389.217
385.378
381.616
377.886
374.063
369.976
364.936
358.276
344.655
0.916146
0.47651
0.437568
0.490109
0.576692
0.688005
0.824361
0.98945
1.18429
1.40736
1.65653
1.9301
2.22687
2.54602
2.88696
3.24927
3.63266
4.03707
4.46256
4.90939
5.37796
5.86881
6.38262
6.92018
7.4824
8.07028
8.68489
9.32744
9.99918
10.7015
11.4358
12.2038
13.007
13.8473
14.7267
15.6472
16.6112
17.6212
18.6798
19.7896
20.9534
22.1738
23.4525
24.7901
26.1858
27.6408
29.1567
30.7352
32.378
34.0866
35.8627
37.7079
39.6236
41.6114
43.6725
45.8084
48.0202
50.3091
52.6763
55.1225
57.6487
60.2556
62.9438
65.7137
68.5657
71.4998
74.516
77.6142
80.794
84.0548
87.3958
90.8161
94.3144
97.8893
101.539
105.262
109.056
112.919
116.847
120.839
124.891
128.999
133.16
137.371
141.626
145.922
150.254
154.618
159.007
163.417
167.844
172.281
176.723
181.167
185.607
190.041
194.465
198.879
203.284
207.682
212.081
216.499
220.897
225.227
229.48
233.648
237.724
241.701
245.572
249.329
252.966
256.474
259.848
263.079
266.162
269.089
271.854
274.451
276.873
279.115
281.172
283.038
284.709
286.181
287.451
288.515
289.37
290.015
290.448
290.667
290.674
290.467
290.05
289.422
288.587
287.547
286.306
284.87
283.241
281.428
279.434
277.267
274.935
272.445
269.806
267.025
264.112
261.076
257.927
254.673
251.325
247.894
244.387
240.816
237.19
233.516
229.809
226.073
222.316
218.559
214.757
211.022
207.38
203.971
201.103
198.439
195.859
193.342
190.882
188.48
186.137
183.855
181.635
179.474
177.369
175.306
173.269
171.21
169.133
168.148
1.58832
0.79055
0.705887
0.738733
0.820844
0.937149
1.08336
1.25767
1.45807
1.68203
1.9271
2.19142
2.47379
2.77347
3.0901
3.42354
3.77384
4.14121
4.52601
4.92873
5.34995
5.79037
6.25078
6.73205
7.23509
7.76091
8.31054
8.88507
9.48567
10.1135
10.7699
11.4561
12.1734
12.9233
13.7071
14.5265
15.3829
16.2778
17.2127
18.1892
19.2085
20.272
21.3806
22.5353
23.7369
24.9866
26.2857
27.6355
29.0371
30.4919
32.001
33.5655
35.1867
36.8655
38.6029
40.4
42.2576
44.1766
46.1577
48.2016
50.3089
52.48
54.7154
57.0153
59.3798
61.8091
64.3029
66.8611
69.4831
72.1686
74.9168
77.7267
80.5974
83.5276
86.5161
89.5611
92.6611
95.814
99.018
102.271
105.57
108.913
112.297
115.719
119.177
122.667
126.187
129.732
133.3
136.887
140.489
144.103
147.726
151.355
154.985
158.615
162.242
165.863
169.477
173.084
176.682
180.268
183.815
187.308
190.738
194.101
197.391
200.6
203.725
206.758
209.694
212.527
215.253
217.864
220.355
222.722
224.959
227.061
229.023
230.84
232.508
234.024
235.383
236.583
237.62
238.492
239.196
239.732
240.097
240.291
240.314
240.166
239.848
239.362
238.709
237.891
236.912
235.775
234.483
233.043
231.457
229.732
227.873
225.887
223.78
221.559
219.23
216.801
214.281
211.675
208.991
206.239
203.425
200.556
197.642
194.684
191.698
188.683
185.641
182.613
179.577
176.575
173.629
170.798
168.177
165.683
163.261
160.898
158.59
156.335
154.135
151.994
149.912
147.893
145.94
144.062
142.272
140.606
139.17
138.701
2.23997
1.13998
0.987633
1.00067
1.07735
1.19406
1.34298
1.52013
1.72242
1.94698
2.19135
2.45363
2.7326
3.02756
3.33821
3.66456
4.00682
4.36537
4.7407
5.13341
5.54421
5.97386
6.42319
6.89309
7.38448
7.89834
8.43569
8.99757
9.58505
10.1992
10.8413
11.5124
12.2136
12.9464
13.7117
14.511
15.3454
16.2162
17.1246
18.0718
19.0589
20.0871
21.1573
22.2708
23.4286
24.6318
25.8817
27.1795
28.5265
29.9237
31.3725
32.8738
34.4289
36.0389
37.7047
39.4274
41.2079
43.0471
44.9458
46.9048
48.9248
51.0062
53.1498
55.3557
57.6243
59.9557
62.35
64.8071
67.3267
69.9084
72.5517
75.2559
78.02
80.8432
83.7241
86.6614
89.6536
92.6991
95.7961
98.9425
102.136
105.375
108.657
111.979
115.34
118.735
122.163
125.62
129.104
132.611
136.139
139.684
143.243
146.812
150.388
153.968
157.547
161.123
164.691
168.25
171.793
175.307
178.777
182.193
185.547
188.835
192.049
195.184
198.235
201.195
204.059
206.821
209.476
212.017
214.44
216.739
218.91
220.947
222.845
224.601
226.209
227.667
228.97
230.116
231.102
231.926
232.585
233.078
233.405
233.564
233.555
233.379
233.037
232.531
231.862
231.034
230.048
228.909
227.62
226.187
224.614
222.906
221.068
219.109
217.033
214.847
212.558
210.174
207.702
205.147
202.519
199.826
197.073
194.267
191.421
188.525
185.611
182.681
179.737
176.8
173.866
170.958
168.091
165.298
162.618
160.029
157.505
155.039
152.629
150.273
147.976
145.738
143.565
141.461
139.436
137.503
135.687
134.042
132.671
131.995
3.23664
1.53246
1.27342
1.25428
1.31882
1.43043
1.57674
1.75186
1.952
2.17413
2.41585
2.67533
2.95135
3.2432
3.55062
3.87364
4.21253
4.56774
4.93982
5.32945
5.73736
6.16436
6.6113
7.07908
7.56863
8.08092
8.61695
9.17773
9.76432
10.3778
11.0192
11.6897
12.3904
13.1224
13.887
14.6852
15.5183
16.3874
17.2937
18.2384
19.2226
20.2476
21.3144
22.4243
23.5785
24.7784
26.0251
27.32
28.6645
30.0597
31.5071
33.008
34.5635
36.175
37.8437
39.5708
41.3574
43.2046
45.1135
47.085
49.1201
51.2196
53.3843
55.6147
57.9114
60.2749
62.7054
65.2029
67.7677
70.3993
73.0977
75.8621
78.692
81.5866
84.5447
87.5653
90.6469
93.7881
96.987
100.242
103.551
106.912
110.323
113.781
117.283
120.829
124.414
128.035
131.691
135.377
139.091
142.829
146.587
150.362
154.148
157.942
161.739
165.534
169.323
173.099
176.851
180.565
184.229
187.835
191.375
194.843
198.232
201.536
204.749
207.863
210.875
213.776
216.562
219.225
221.762
224.166
226.431
228.553
230.527
232.348
234.011
235.514
236.852
238.022
239.023
239.851
240.504
240.983
241.285
241.41
241.358
241.13
240.728
240.154
239.41
238.498
237.423
236.187
234.796
233.255
231.569
229.743
227.784
225.699
223.494
221.177
218.752
216.231
213.621
210.927
208.156
205.322
202.424
199.473
196.49
193.47
190.43
187.376
184.314
181.256
178.207
175.179
172.186
169.248
166.386
163.594
160.864
158.191
155.575
153.017
150.521
148.09
145.728
143.445
141.251
139.163
137.21
135.445
133.945
132.943
4.51502
1.96149
1.55344
1.48842
1.53405
1.63604
1.7761
1.94607
2.14131
2.3586
2.59556
2.85046
3.1221
3.40981
3.7133
4.03263
4.36806
4.72007
5.08924
5.47626
5.88191
6.307
6.7524
7.21903
7.70783
8.21976
8.75584
9.31708
9.90452
10.5192
11.1623
11.8348
12.5379
13.2728
14.0405
14.8424
15.6795
16.5531
17.4645
18.4149
19.4055
20.4376
21.5126
22.6319
23.7968
25.0088
26.2693
27.5798
28.9418
30.3569
31.8266
33.3525
34.9359
36.5786
38.2819
40.0475
41.8767
43.7709
45.7316
47.7601
49.8576
52.0253
54.2644
56.5757
58.9602
61.4186
63.9516
66.5596
69.2429
72.0017
74.8359
77.7452
80.7292
83.7873
86.9187
90.1223
93.3968
96.7409
100.153
103.631
107.173
110.778
114.442
118.163
121.94
125.768
129.646
133.571
137.539
141.546
145.591
149.667
153.771
157.899
162.045
166.203
170.368
174.532
178.69
182.834
186.944
191.007
195.013
198.954
202.822
206.608
210.306
213.908
217.408
220.798
224.072
227.223
230.244
233.13
235.873
238.468
240.91
243.192
245.309
247.257
249.03
250.626
252.041
253.27
254.313
255.167
255.829
256.301
256.579
256.665
256.559
256.261
255.775
255.102
254.246
253.21
251.998
250.613
249.062
247.35
245.484
243.47
241.312
239.021
236.604
234.068
231.418
228.667
225.823
222.889
219.874
216.8
213.668
210.484
207.265
204.014
200.743
197.458
194.168
190.882
187.606
184.351
181.126
177.948
174.827
171.767
168.765
165.821
162.936
160.113
157.356
154.67
152.06
149.537
147.112
144.806
142.646
140.677
138.948
137.592
5.85476
2.38371
1.81217
1.69486
1.71749
1.80682
1.93821
2.101
2.28953
2.50029
2.73087
2.97958
3.24528
3.52732
3.82543
4.13964
4.47023
4.81767
5.18256
5.5656
5.96756
6.38928
6.83167
7.29563
7.78214
8.29218
8.82676
9.38693
9.97376
10.5883
11.2318
11.9052
12.6098
13.3467
14.1173
14.9227
15.7641
16.6431
17.5608
18.5186
19.5181
20.5606
21.6476
22.7808
23.9617
25.192
26.4733
27.8075
29.1963
30.6415
32.1449
33.7084
35.334
37.0233
38.7785
40.6012
42.4934
44.4569
46.4936
48.6051
50.7932
53.0595
55.4055
57.8327
60.3423
62.9356
65.6136
68.3771
71.2268
74.1632
77.1867
80.2972
83.4946
86.7785
90.1483
93.603
97.1416
100.763
104.464
108.245
112.103
116.036
120.041
124.116
128.258
132.464
136.732
141.057
145.437
149.868
154.345
158.864
163.42
168.008
172.62
177.25
181.89
186.533
191.168
195.783
200.353
204.868
209.318
213.692
217.981
222.177
226.272
230.258
234.126
237.868
241.478
244.947
248.269
251.436
254.441
257.279
259.942
262.425
264.723
266.829
268.74
270.451
271.958
273.26
274.353
275.236
275.907
276.366
276.612
276.645
276.466
276.077
275.482
274.682
273.682
272.486
271.098
269.523
267.767
265.838
263.743
261.488
259.078
256.524
253.838
251.025
248.084
245.04
241.903
238.676
235.368
231.995
228.564
225.082
221.563
218.012
214.441
210.857
207.268
203.684
200.111
196.558
193.034
189.551
186.119
182.742
179.421
176.158
172.958
169.823
166.76
163.772
160.869
158.059
155.358
152.785
150.364
148.132
146.115
144.392
7.17908
2.78184
2.04317
1.87084
1.8681
1.94272
2.06371
2.21783
2.39835
2.60133
2.82426
3.06545
3.3238
3.59869
3.88986
4.19735
4.52143
4.86255
5.22133
5.59847
5.99476
6.41105
6.84825
7.30731
7.78922
8.29498
8.82565
9.38231
9.96607
10.5781
11.2194
11.8914
12.5953
13.3322
14.1036
14.9108
15.7552
16.6383
17.5615
18.5264
19.5347
20.5879
21.6879
22.8365
24.0355
25.2868
26.5925
27.9546
29.3752
30.8565
32.4007
34.01
35.6868
37.4333
39.2519
41.145
43.1148
45.1638
47.2941
49.5082
51.8082
54.1962
56.6742
59.2444
61.9084
64.668
67.5246
70.4796
73.5342
76.6892
79.9453
83.3029
86.7621
90.3229
93.9846
97.7466
101.608
105.567
109.622
113.772
118.014
122.346
126.764
131.267
135.851
140.514
145.25
150.058
154.932
159.869
164.864
169.912
175.006
180.14
185.306
190.496
195.699
200.907
206.109
211.271
216.381
221.425
226.392
231.271
236.051
240.723
245.278
249.705
253.996
258.142
262.134
265.966
269.627
273.111
276.41
279.517
282.426
285.129
287.622
289.898
291.953
293.782
295.384
296.753
297.89
298.791
299.457
299.886
300.078
300.036
299.76
299.252
298.517
297.557
296.379
294.987
293.386
291.581
289.579
287.39
285.023
282.483
279.773
276.91
273.909
270.775
267.513
264.14
260.667
257.101
253.454
249.736
245.959
242.13
238.262
234.362
230.441
226.507
222.569
218.636
214.715
210.814
206.942
203.109
199.323
195.589
191.912
188.295
184.743
181.26
177.853
174.528
171.295
168.163
165.147
162.267
159.542
157.002
154.655
152.554
8.43957
3.14697
2.2444
2.01678
1.98747
2.046
2.15528
2.29956
2.47101
2.6652
2.87943
3.11199
3.36179
3.62822
3.91104
4.21029
4.52624
4.85934
5.21021
5.57955
5.96817
6.37693
6.80676
7.25864
7.73358
8.23264
8.75692
9.30754
9.88568
10.4925
11.1294
11.7974
12.4981
13.2328
14.0029
14.8099
15.6555
16.5412
17.4687
18.4398
19.4564
20.5204
21.6337
22.7986
24.0172
25.2917
26.6245
28.0181
29.4749
30.9976
32.5888
34.2513
35.9877
37.8011
39.6942
41.6699
43.7311
45.8808
48.1218
50.457
52.8892
55.4212
58.0555
60.7948
63.6414
66.5975
69.6653
72.8466
76.1431
79.5559
83.0864
86.7351
90.5025
94.3888
98.3936
102.516
106.756
111.111
115.58
120.161
124.851
129.648
134.548
139.548
144.644
149.834
155.112
160.475
165.918
171.437
177.025
182.676
188.385
194.141
199.937
205.761
211.603
217.448
223.279
229.055
234.765
240.396
245.936
251.371
256.691
261.884
266.938
271.845
276.593
281.172
285.574
289.789
293.809
297.624
301.228
304.612
307.769
310.694
313.377
315.816
318.004
319.939
321.616
323.035
324.192
325.088
325.721
326.091
326.199
326.048
325.64
324.978
324.065
322.908
321.512
319.884
318.03
315.955
313.661
311.172
308.493
305.63
302.592
299.39
296.04
292.55
288.929
285.19
281.345
277.404
273.378
269.279
265.118
260.904
256.649
252.362
248.052
243.731
239.405
235.085
230.777
226.491
222.234
218.015
213.843
209.722
205.659
201.658
197.725
193.865
190.087
186.396
182.802
179.318
175.957
172.736
169.674
166.791
164.085
161.596
9.60204
3.47394
2.41587
2.13456
2.07845
2.12008
2.2167
2.35021
2.51169
2.69622
2.90088
3.12389
3.36413
3.62101
3.89429
4.184
4.49044
4.81405
5.15544
5.51534
5.89454
6.29395
6.71452
7.15725
7.62321
8.1135
8.62928
9.17175
9.74215
10.3418
10.972
11.6342
12.3299
13.0606
13.8279
14.6334
15.4791
16.3666
17.298
18.2753
19.3006
20.3762
21.5043
22.6876
23.9284
25.2296
26.5938
28.024
29.5232
31.0945
32.741
34.466
36.273
38.1653
40.1464
42.2199
44.3893
46.6581
49.03
51.5085
54.097
56.799
59.6176
62.5562
65.6177
68.8051
72.1209
75.5675
79.1471
82.8615
86.7121
90.7
94.8261
99.0905
103.493
108.033
112.71
117.522
122.468
127.544
132.747
138.076
143.525
149.091
154.77
160.556
166.446
172.435
178.517
184.686
190.937
197.261
203.651
210.097
216.589
223.113
229.656
236.202
242.701
249.134
255.485
261.742
267.889
273.913
279.8
285.537
291.112
296.513
301.73
306.751
311.566
316.166
320.54
324.679
328.577
332.224
335.613
338.738
341.59
344.164
346.456
348.464
350.184
351.615
352.755
353.606
354.165
354.434
354.415
354.111
353.527
352.665
351.53
350.128
348.47
346.562
344.412
342.027
339.414
336.589
333.562
330.342
326.939
323.365
319.633
315.754
311.74
307.602
303.354
299.007
294.571
290.06
285.484
280.855
276.183
271.479
266.752
262.014
257.272
252.535
247.813
243.114
238.445
233.814
229.23
224.699
220.227
215.82
211.484
207.226
203.054
198.975
194.999
191.139
187.407
183.821
180.395
177.144
174.056
171.171
10.6431
3.75993
2.55862
2.22672
2.14443
2.16888
2.25223
2.37427
2.52508
2.69926
2.89366
3.10638
3.33629
3.58278
3.84561
4.12482
4.4207
4.73371
5.06445
5.41366
5.78218
6.17091
6.58086
7.01306
7.46865
7.94879
8.45471
8.98771
9.54913
10.1404
10.763
11.4185
12.1085
12.8348
13.5991
14.4034
15.2497
16.1402
17.077
18.0625
19.0992
20.1898
21.3369
22.5434
23.8125
25.1471
26.5507
28.0267
29.5786
31.2101
32.925
34.7273
36.6211
38.6104
40.6994
42.8924
45.1937
47.6076
50.1385
52.7905
55.5678
58.4746
61.5147
64.6922
68.0106
71.4734
75.0838
78.8448
82.7589
86.8284
91.0551
95.4403
99.9849
104.689
109.554
114.577
119.758
125.095
130.586
136.228
142.017
147.949
154.019
160.223
166.555
173.01
179.582
186.264
193.052
199.938
206.914
213.973
221.104
228.296
235.537
242.813
250.105
257.373
264.57
271.682
278.695
285.592
292.358
298.977
305.433
311.712
317.801
323.688
329.359
334.804
340.01
344.969
349.668
354.1
358.256
362.128
365.71
368.991
371.965
374.626
376.973
379.002
380.712
382.101
383.17
383.919
384.349
384.46
384.258
383.746
382.931
381.817
380.41
378.719
376.754
374.522
372.034
369.298
366.324
363.126
359.714
356.101
352.298
348.317
344.171
339.873
335.436
330.872
326.193
321.412
316.541
311.593
306.58
301.512
296.4
291.257
286.092
280.915
275.737
270.565
265.409
260.277
255.177
250.117
245.105
240.147
235.251
230.423
225.67
220.998
216.416
211.933
207.559
203.306
199.187
195.217
191.407
187.769
184.286
180.999
11.549
4.00391
2.6743
2.29603
2.18888
2.19638
2.26625
2.37642
2.5161
2.67947
2.86315
3.06514
3.28425
3.51986
3.77171
4.03987
4.32461
4.62642
4.9459
5.28383
5.64105
6.01852
6.41729
6.83848
7.28328
7.75294
8.24882
8.77232
9.32494
9.90824
10.5239
11.1737
11.8594
12.5831
13.3468
14.1527
15.0032
15.9007
16.8479
17.8476
18.9025
20.016
21.191
22.4312
23.74
25.1212
26.5788
28.1168
29.7395
31.4512
33.2566
35.1603
37.1672
39.2821
41.5101
43.8563
46.3259
48.9239
51.6554
54.5256
57.5392
60.701
64.0157
67.4877
71.1213
74.9206
78.8892
83.0305
87.3474
91.8425
96.5176
101.374
106.413
111.635
117.039
122.625
128.39
134.333
140.45
146.738
153.192
159.807
166.578
173.496
180.555
187.75
195.072
202.514
210.07
217.731
225.488
233.332
241.251
249.232
257.259
265.317
273.374
281.356
289.247
297.03
304.69
312.21
319.575
326.764
333.759
340.546
347.11
353.439
359.518
365.336
370.881
376.142
381.108
385.77
390.119
394.149
397.855
401.224
404.248
406.924
409.252
411.229
412.855
414.13
415.054
415.63
415.86
415.747
415.297
414.516
413.409
411.985
410.252
408.218
405.893
403.288
400.414
397.282
393.903
390.291
386.457
382.414
378.177
373.757
369.167
364.422
359.535
354.519
349.387
344.152
338.826
333.423
327.954
322.431
316.866
311.27
305.653
300.026
294.398
288.779
283.178
277.603
272.062
266.564
261.115
255.723
250.395
245.138
239.96
234.867
229.868
224.972
220.191
215.535
211.017
206.651
202.446
198.411
194.525
190.834
12.3157
4.20634
2.76489
2.3453
2.2152
2.2065
2.26308
2.36137
2.48985
2.6423
2.81518
3.00637
3.21465
3.43936
3.68027
3.93743
4.21113
4.50188
4.81031
5.13724
5.48356
5.8503
6.23858
6.64962
7.08472
7.54528
8.03278
8.54881
9.09505
9.67329
10.2854
10.9335
11.6197
12.3463
13.1158
13.9307
14.7938
15.7081
16.6766
17.7027
18.7899
19.9418
21.1623
22.4554
23.8255
25.2771
26.8148
28.4435
30.1684
31.9946
33.9276
35.973
38.1364
40.4238
42.841
45.3942
48.0892
50.9322
53.9291
57.0858
60.4077
63.9
67.5677
71.4158
75.4493
79.6723
84.089
88.7028
93.5166
98.5331
103.754
109.18
114.813
120.651
126.694
132.94
139.387
146.03
152.868
159.893
167.103
174.489
182.044
189.755
197.617
205.62
213.756
222.016
230.392
238.873
247.45
256.111
264.842
273.627
282.451
291.29
300.046
308.703
317.243
325.647
333.898
341.981
349.883
357.576
365.036
372.252
379.21
385.895
392.295
398.397
404.187
409.656
414.792
419.586
424.029
428.116
431.839
435.191
438.167
440.762
442.977
444.81
446.261
447.332
448.025
448.344
448.293
447.877
447.103
445.978
444.51
442.708
440.582
438.143
435.401
432.369
429.058
425.481
421.652
417.583
413.288
408.781
404.076
399.187
394.128
388.912
383.553
378.066
372.464
366.759
360.965
355.096
349.162
343.176
337.151
331.096
325.023
318.941
312.862
306.794
300.746
294.727
288.744
282.806
276.921
271.095
265.336
259.65
254.047
248.532
243.116
237.807
232.617
227.556
222.636
217.87
213.266
208.83
204.541
200.449
12.9496
4.36908
2.83259
2.37727
2.22671
2.20305
2.24711
2.33403
2.45172
2.5937
2.75625
2.93721
3.1353
3.34986
3.58067
3.8278
4.09159
4.37255
4.67142
4.98905
5.32644
5.68474
6.06518
6.46914
6.89809
7.35363
7.83748
8.35146
8.89754
9.47784
10.0946
10.7503
11.4474
12.1888
12.9774
13.8164
14.7091
15.6591
16.6703
17.7467
18.8924
20.112
21.4102
22.7918
24.2621
25.8266
27.4908
29.2608
31.1425
33.1422
35.2665
37.5218
39.9148
42.4525
45.1417
47.9893
51.0023
54.1876
57.5522
61.1027
64.8451
68.7833
72.9229
77.2693
81.8274
86.6014
91.5952
96.812
102.254
107.924
113.821
119.948
126.302
132.883
139.689
146.716
153.96
161.417
169.08
176.945
185.003
193.252
201.676
210.256
218.984
227.852
236.849
245.964
255.187
264.506
273.908
283.381
292.909
302.473
312.05
321.53
330.898
340.134
349.219
358.135
366.864
375.387
383.688
391.746
399.54
407.053
414.271
421.18
427.765
434.013
439.912
445.451
450.621
455.411
459.814
463.825
467.437
470.646
473.446
475.837
477.818
479.388
480.549
481.306
481.661
481.621
481.191
480.378
479.189
477.635
475.724
473.468
470.878
467.966
464.745
461.227
457.426
453.356
449.031
444.465
439.673
434.669
429.468
424.085
418.533
412.828
406.984
401.013
394.931
388.75
382.484
376.146
369.747
363.3
356.816
350.307
343.782
337.253
330.729
324.22
317.733
311.279
304.863
298.495
292.182
285.932
279.751
273.646
267.627
261.7
255.874
250.159
244.566
239.105
233.788
228.626
223.626
218.794
214.108
209.622
13.47
4.49556
2.87985
2.39474
2.22678
2.19011
2.22307
2.29989
2.40805
2.54085
2.6945
2.86677
3.05642
3.2628
3.48572
3.72531
3.98198
4.25636
4.54927
4.86171
5.19484
5.55
5.92865
6.33243
6.7631
7.22258
7.71293
8.23637
8.79532
9.39239
10.0304
10.7123
11.4414
12.2211
13.0553
13.9478
14.9029
15.9252
17.0196
18.1913
19.4455
20.7877
22.2235
23.7591
25.401
27.1559
29.0306
31.0324
33.1684
35.446
37.8729
40.4567
43.205
46.1256
49.2262
52.5144
55.9978
59.6838
63.5802
67.6953
72.0362
76.5993
81.392
86.4197
91.6867
97.1965
102.952
108.954
115.205
121.705
128.452
135.446
142.684
150.162
157.877
165.822
173.993
182.381
190.978
199.777
208.766
217.936
227.272
236.759
246.384
256.133
265.994
275.953
285.996
296.111
306.281
316.495
326.734
336.952
347.047
357.008
366.818
376.457
385.908
395.15
404.168
412.941
421.452
429.683
437.613
445.227
452.509
459.444
466.018
472.219
478.035
483.456
488.473
493.077
497.262
501.023
504.355
507.255
509.72
511.75
513.346
514.509
515.243
515.553
515.444
514.924
514.001
512.682
510.978
508.9
506.458
503.665
500.535
497.081
493.315
489.254
484.91
480.3
475.438
470.339
465.019
459.492
453.774
447.879
441.823
435.619
429.282
422.827
416.266
409.612
402.88
396.081
389.228
382.332
375.404
368.456
361.497
354.538
347.588
340.656
333.75
326.879
320.051
313.273
306.553
299.897
293.314
286.81
280.392
274.07
267.852
261.748
255.766
249.92
244.219
238.673
233.289
228.074
223.003
218.137
13.914
4.59126
2.90965
2.40096
2.21944
2.17267
2.19713
2.26635
2.36754
2.49392
2.64167
2.8086
2.99351
3.19585
3.41554
3.65284
3.90833
4.18283
4.47739
4.79325
5.13189
5.49498
5.88442
6.30231
6.75096
7.23288
7.75065
8.30715
8.90557
9.54936
10.2423
10.9883
11.7917
12.6573
13.5899
14.5948
15.6779
16.845
18.1029
19.4584
20.9198
22.4917
24.1817
25.9978
27.9483
30.0413
32.2852
34.6885
37.2597
40.0071
42.9394
46.0648
49.3916
52.9277
56.6809
60.6586
64.8678
69.3153
74.0072
78.9491
84.1454
89.5973
95.3079
101.28
107.514
114.013
120.776
127.801
135.088
142.634
150.434
158.485
166.782
175.317
184.085
193.076
202.281
211.691
221.295
231.08
241.034
251.143
261.391
271.762
282.239
292.806
303.446
314.143
324.88
335.646
346.415
357.189
367.858
378.369
388.714
398.881
408.853
418.615
428.147
437.432
446.452
455.19
463.628
471.75
479.537
486.973
494.044
500.735
507.033
512.927
518.407
523.462
528.085
532.269
536.009
539.3
542.141
544.529
546.465
547.947
548.98
549.567
549.712
549.423
548.707
547.573
546.03
544.089
541.761
539.058
535.993
532.58
528.834
524.769
520.399
515.74
510.808
505.618
500.186
494.528
488.658
482.593
476.347
469.936
463.374
456.675
449.854
442.924
435.899
428.791
421.612
414.375
407.092
399.773
392.429
385.071
377.708
370.35
363.005
355.683
348.39
341.136
333.927
326.771
319.675
312.646
305.691
298.817
292.031
285.342
278.759
272.29
265.946
259.737
253.674
247.766
242.019
236.44
231.006
225.782
14.3421
4.66473
2.92637
2.4008
2.21094
2.15874
2.17924
2.24556
2.34484
2.47029
2.61821
2.78656
2.97432
3.18116
3.40726
3.65322
3.91995
4.20872
4.52107
4.85869
5.22364
5.61833
6.04547
6.50812
7.00976
7.55439
8.14508
8.78588
9.48162
10.2374
11.0587
11.9515
12.9219
13.9768
15.1233
16.3691
17.7221
19.1909
20.7844
22.5116
24.382
26.4045
28.5884
30.9434
33.4792
36.2054
39.1313
42.2661
45.6186
49.1971
53.0097
57.0637
61.366
65.923
70.7402
75.8224
81.1737
86.7974
92.6956
98.8698
105.32
112.045
119.043
126.312
133.85
141.652
149.715
158.032
166.599
175.408
184.451
193.722
203.21
212.907
222.802
232.883
243.14
253.56
264.128
274.831
285.653
296.578
307.587
318.664
329.789
340.94
352.104
363.254
374.372
385.47
396.453
407.225
417.804
428.184
438.354
448.303
458.018
467.482
476.681
485.597
494.215
502.518
510.491
518.118
525.384
532.273
538.772
544.868
550.549
555.806
560.629
565.01
568.942
572.42
575.44
578.001
580.1
581.739
582.918
583.64
583.908
583.728
583.108
582.054
580.577
578.687
576.394
573.71
570.649
567.224
563.448
559.337
554.907
550.172
545.148
539.851
534.296
528.501
522.481
516.251
509.827
503.225
496.458
489.543
482.492
475.32
468.039
460.664
453.206
445.678
438.091
430.457
422.785
415.087
407.371
399.649
391.928
384.217
376.525
368.86
361.228
353.637
346.094
338.606
331.179
323.82
316.536
309.335
302.222
295.206
288.295
281.499
274.828
268.29
261.897
255.658
249.577
243.664
237.895
232.34
14.8787
4.73073
2.93768
2.40354
2.21357
2.16418
2.18938
2.26217
2.36981
2.50581
2.6668
2.85115
3.05834
3.28861
3.5428
3.82227
4.12869
4.4645
4.83288
5.2357
5.67656
6.15963
6.68951
7.2713
7.9106
8.61356
9.38662
10.2369
11.1723
12.2011
13.3326
14.5763
15.9425
17.4419
19.0857
20.8856
22.8533
25.0011
27.3409
29.8846
32.6439
35.6297
38.8525
42.3222
46.0479
50.0377
54.2989
58.8374
63.6582
68.7651
74.1606
79.8465
85.8233
92.0906
98.6467
105.489
112.614
120.016
127.691
135.632
143.832
152.282
160.974
169.901
179.053
188.422
197.998
207.772
217.732
227.869
238.171
248.63
259.233
269.969
280.826
291.791
302.853
313.996
325.207
336.47
347.771
359.09
370.406
381.706
392.963
404.15
415.277
426.292
437.124
447.687