/*--------------------------------*- C++ -*----------------------------------*\
| =========                 |                                                 |
| \\      /  F ield         | OpenFOAM: The Open Source CFD Toolbox           |
|  \\    /   O peration     | Version:  2.2.x                                 |
|   \\  /    A nd           | Web:      www.OpenFOAM.org                      |
|    \\/     M anipulation  |                                                 |
\*---------------------------------------------------------------------------*/
FoamFile
{
    version     2.0;
    format      ascii;
    class       volScalarField;
    location    "750";
    object      k;
}
// * * * * * * * * * * * * * * * * * * * * * * * * * * * * * * * * * * * * * //

dimensions      [0 2 -2 0 0 0 0];

internalField   nonuniform List<scalar> 
12225
(
0.773254
1.11727
1.35409
1.50336
1.59083
1.63716
1.65702
1.66036
1.65367
1.64112
1.62537
1.60807
1.59025
1.57254
1.55531
1.53876
1.52275
1.50868
0.492803
0.515897
0.520062
0.519337
0.515968
0.511066
0.505594
0.500235
0.495409
0.491347
0.488153
0.485847
0.484399
0.483756
0.483869
0.484768
0.487061
0.490698
0.412017
0.424095
0.421858
0.414167
0.404224
0.393409
0.38246
0.371808
0.361711
0.35232
0.343712
0.335915
0.328923
0.322712
0.317244
0.312486
0.308405
0.304816
0.381869
0.385949
0.386337
0.383939
0.379748
0.374466
0.368564
0.362354
0.356049
0.349795
0.343692
0.337807
0.332184
0.32685
0.321818
0.317092
0.312664
0.308532
0.375243
0.375519
0.374935
0.373413
0.371106
0.368204
0.364883
0.361285
0.357522
0.353678
0.349819
0.345992
0.342234
0.338571
0.335022
0.331599
0.32831
0.325179
0.373469
0.372204
0.370885
0.369331
0.367504
0.365429
0.363154
0.360729
0.358201
0.35561
0.35299
0.350368
0.347766
0.345202
0.342689
0.340237
0.337855
0.33557
0.372982
0.371101
0.36935
0.367626
0.365876
0.364075
0.362218
0.360314
0.358375
0.356414
0.354447
0.352485
0.35054
0.34862
0.346734
0.344888
0.343088
0.341357
0.372867
0.370792
0.36886
0.367023
0.365244
0.363498
0.361769
0.360051
0.358343
0.356647
0.354966
0.353307
0.351672
0.350066
0.348493
0.346957
0.345462
0.344025
0.372829
0.37068
0.368664
0.366759
0.364944
0.363201
0.361515
0.359875
0.358275
0.356712
0.355184
0.353691
0.352232
0.35081
0.349424
0.348075
0.346766
0.345512
0.372814
0.370635
0.368578
0.366633
0.364788
0.363032
0.361354
0.359745
0.358197
0.356704
0.355262
0.353868
0.35252
0.351215
0.349953
0.348732
0.347553
0.346428
0.372807
0.370616
0.368542
0.366578
0.364715
0.362946
0.361263
0.35966
0.358129
0.356665
0.355263
0.353919
0.352629
0.35139
0.350199
0.349054
0.347955
0.346911
0.372803
0.370607
0.368526
0.366553
0.36468
0.362903
0.361214
0.359608
0.358079
0.356623
0.355234
0.353908
0.352642
0.351432
0.350274
0.349166
0.348107
0.347105
0.3728
0.370601
0.368516
0.366539
0.364662
0.36288
0.361186
0.359577
0.358045
0.356588
0.3552
0.353878
0.352618
0.351416
0.350269
0.349174
0.34813
0.347144
0.372797
0.370597
0.36851
0.36653
0.36465
0.362865
0.361168
0.359556
0.358022
0.356562
0.355172
0.353849
0.352588
0.351386
0.35024
0.349147
0.348105
0.347123
0.372796
0.370594
0.368505
0.366523
0.364641
0.362854
0.361155
0.35954
0.358004
0.356542
0.35515
0.353824
0.352561
0.351357
0.35021
0.349115
0.348071
0.347089
0.372795
0.370592
0.368502
0.366518
0.364635
0.362846
0.361146
0.359529
0.357991
0.356527
0.355133
0.353805
0.35254
0.351334
0.350185
0.349088
0.348043
0.347058
0.372794
0.370591
0.3685
0.366515
0.364631
0.362841
0.361139
0.359521
0.357981
0.356516
0.355121
0.353792
0.352525
0.351318
0.350166
0.349068
0.348021
0.347035
0.372794
0.37059
0.368499
0.366514
0.364629
0.362838
0.361136
0.359517
0.357977
0.356511
0.355114
0.353784
0.352517
0.351308
0.350156
0.349057
0.348009
0.347022
0.372794
0.37059
0.3685
0.366515
0.36463
0.362839
0.361137
0.359517
0.357977
0.35651
0.355114
0.353784
0.352516
0.351307
0.350154
0.349055
0.348007
0.34702
0.372795
0.370591
0.368501
0.366517
0.364632
0.362842
0.36114
0.359521
0.357981
0.356515
0.355119
0.353789
0.352522
0.351313
0.350161
0.349062
0.348014
0.347027
0.372795
0.370593
0.368504
0.36652
0.364637
0.362848
0.361148
0.359531
0.357993
0.356529
0.355135
0.353807
0.352541
0.351334
0.350183
0.349084
0.348036
0.34705
0.372797
0.370596
0.368509
0.36653
0.364652
0.362869
0.361175
0.359565
0.358034
0.356576
0.355187
0.353863
0.352599
0.351393
0.350241
0.349139
0.348087
0.347094
0.3728
0.370607
0.368532
0.36657
0.364713
0.362953
0.361282
0.359692
0.358177
0.35673
0.355347
0.354021
0.35275
0.35153
0.350357
0.34923
0.348147
0.347119
0.372815
0.370662
0.368649
0.366761
0.36498
0.363289
0.361672
0.360118
0.358617
0.357163
0.355752
0.35438
0.353046
0.351749
0.350488
0.349262
0.348073
0.346933
0.372911
0.370959
0.369194
0.367544
0.365953
0.364384
0.362817
0.361246
0.359669
0.35809
0.356513
0.354945
0.353391
0.351856
0.350345
0.348862
0.34741
0.346008
0.373469
0.372366
0.371364
0.370237
0.368904
0.367357
0.365627
0.363755
0.361779
0.359734
0.357647
0.35554
0.353434
0.351341
0.349273
0.347239
0.345247
0.343318
0.376461
0.378228
0.378834
0.378173
0.37655
0.374272
0.371563
0.368577
0.365422
0.362172
0.358881
0.355589
0.352324
0.34911
0.345962
0.342893
0.339913
0.337044
0.392606
0.401341
0.402165
0.399516
0.395305
0.390342
0.385014
0.379525
0.373995
0.368504
0.363108
0.357849
0.352758
0.347857
0.343162
0.33868
0.334414
0.330374
0.438298
0.449783
0.450807
0.449576
0.447828
0.44585
0.443726
0.441503
0.439218
0.436907
0.43461
0.432363
0.430196
0.428133
0.42619
0.424374
0.422671
0.421022
0.544749
0.705345
0.836387
0.946126
1.04199
1.12366
1.19167
1.24712
1.29142
1.32608
1.35255
1.37219
1.3862
1.39562
1.40133
1.40407
1.40448
1.40301
0.0033743
0.0050551
0.00632814
0.00731569
0.00828624
0.00923555
0.010275
0.0117241
0.0135413
0.0156468
0.017977
0.0204848
0.02314
0.0259223
0.0288168
0.0318121
0.0348993
0.0380716
0.0413238
0.0446523
0.0480543
0.0515284
0.0550739
0.0586908
0.0623797
0.0661418
0.0699788
0.0738927
0.0778859
0.0819613
0.0861222
0.0903725
0.0947163
0.0991588
0.103706
0.108364
0.113143
0.118053
0.123106
0.12832
0.133717
0.139323
0.145176
0.151293
0.157574
0.164018
0.170628
0.177405
0.184354
0.191476
0.198773
0.206246
0.213898
0.22173
0.229741
0.237933
0.246307
0.25486
0.263594
0.272508
0.2816
0.290869
0.300312
0.309929
0.319715
0.329669
0.339786
0.350063
0.360495
0.371078
0.381807
0.392676
0.403679
0.41481
0.426062
0.437428
0.4489
0.46047
0.472128
0.483866
0.495675
0.507542
0.519458
0.531411
0.543388
0.555376
0.567362
0.579332
0.591271
0.603162
0.614992
0.626742
0.638398
0.649944
0.661365
0.672648
0.683784
0.694767
0.705599
0.716292
0.726875
0.737404
0.747737
0.757782
0.767532
0.776975
0.786098
0.794891
0.803341
0.811436
0.819165
0.826516
0.833478
0.840039
0.84619
0.851919
0.857216
0.862073
0.866479
0.870428
0.873912
0.876924
0.879459
0.881512
0.883079
0.884157
0.884743
0.884837
0.884437
0.883547
0.882168
0.880303
0.877959
0.87514
0.871854
0.868108
0.863912
0.859278
0.854219
0.848746
0.842871
0.836611
0.829984
0.823007
0.815694
0.808063
0.800139
0.791941
0.783482
0.774787
0.765881
0.756782
0.747506
0.738084
0.72853
0.718865
0.709125
0.699304
0.689448
0.67958
0.669653
0.659842
0.650239
0.641689
0.635789
0.630347
0.625033
0.619809
0.614672
0.609628
0.604682
0.599834
0.595079
0.590392
0.585726
0.580953
0.575895
0.569831
0.56205
0.546916
0.00712497
0.0107894
0.0145539
0.0178945
0.0207211
0.0233583
0.0260411
0.0289264
0.0320846
0.035513
0.0391858
0.04308
0.04718
0.0514755
0.0559594
0.0606262
0.0654715
0.0704922
0.0756865
0.0810533
0.0865926
0.0923052
0.0981925
0.104257
0.1105
0.116927
0.12354
0.130343
0.137341
0.144539
0.151942
0.159554
0.167383
0.175435
0.183715
0.192231
0.200991
0.210001
0.21927
0.228805
0.238615
0.248706
0.259084
0.26975
0.280706
0.291958
0.303514
0.315379
0.327561
0.340064
0.352893
0.366054
0.37955
0.393386
0.407564
0.422087
0.436958
0.452178
0.467748
0.48367
0.499943
0.516567
0.53354
0.55086
0.568526
0.586534
0.604879
0.623558
0.642565
0.661894
0.681538
0.701491
0.721742
0.742285
0.763109
0.784204
0.805559
0.827162
0.849001
0.871064
0.893335
0.915801
0.938446
0.961253
0.984206
1.00728
1.03047
1.05374
1.07708
1.10045
1.12385
1.14723
1.17058
1.19386
1.21705
1.24012
1.26304
1.2858
1.30835
1.33069
1.3528
1.37457
1.39588
1.41678
1.43726
1.45732
1.47691
1.49603
1.51464
1.53272
1.55025
1.56721
1.58356
1.59929
1.61437
1.62878
1.64249
1.65548
1.66774
1.67923
1.68994
1.69986
1.70896
1.71722
1.72464
1.73119
1.73687
1.74167
1.74557
1.74857
1.75066
1.75185
1.75213
1.75151
1.74999
1.74757
1.74426
1.74008
1.73504
1.72916
1.72244
1.71492
1.70662
1.69756
1.68777
1.67727
1.66611
1.6543
1.64189
1.62891
1.61539
1.60137
1.5869
1.572
1.55673
1.5411
1.52519
1.509
1.49258
1.47603
1.45917
1.44236
1.42565
1.40914
1.39317
1.37744
1.36186
1.34646
1.33127
1.31629
1.30155
1.28706
1.27283
1.25885
1.24508
1.23148
1.21791
1.20411
1.18936
1.17033
0.0102815
0.0180518
0.0238635
0.0282244
0.0320454
0.0357217
0.039481
0.043458
0.0477154
0.0522645
0.0570934
0.0621859
0.0675288
0.0731127
0.078931
0.0849793
0.0912544
0.0977544
0.104478
0.111426
0.118598
0.125997
0.133625
0.141484
0.149579
0.157914
0.166493
0.175321
0.184405
0.19375
0.203363
0.21325
0.223418
0.233874
0.244627
0.255684
0.267052
0.278741
0.290757
0.30311
0.315805
0.328851
0.342253
0.356019
0.370155
0.384669
0.399569
0.414863
0.430559
0.446663
0.463182
0.480122
0.497487
0.515283
0.533514
0.552182
0.571292
0.590845
0.610842
0.631286
0.652175
0.673508
0.695285
0.717503
0.740158
0.763246
0.786761
0.810698
0.83505
0.859807
0.884961
0.910502
0.936418
0.962697
0.989327
1.01629
1.04358
1.07117
1.09905
1.12721
1.15561
1.18426
1.21311
1.24216
1.27138
1.30075
1.33024
1.35983
1.3895
1.41921
1.44893
1.47864
1.50831
1.53789
1.56736
1.59667
1.62581
1.65472
1.68339
1.71176
1.73983
1.76739
1.79445
1.821
1.84702
1.87249
1.89738
1.92165
1.94527
1.96822
1.99046
2.01197
2.03271
2.05266
2.07178
2.09004
2.10742
2.12389
2.13942
2.15398
2.16755
2.18011
2.19163
2.20209
2.21148
2.21978
2.22697
2.23304
2.23798
2.24177
2.24442
2.24593
2.24628
2.24549
2.24356
2.24049
2.2363
2.23101
2.22462
2.21716
2.20865
2.19912
2.18859
2.17711
2.16469
2.15137
2.1372
2.12222
2.10646
2.08997
2.07279
2.05498
2.03657
2.01762
1.99818
1.97827
1.95799
1.93734
1.91635
1.89525
1.87395
1.8526
1.83129
1.81013
1.78928
1.76864
1.74818
1.72793
1.70791
1.68816
1.66871
1.64958
1.63079
1.61237
1.5943
1.57661
1.55925
1.54221
1.52517
1.50779
0.012929
0.0250318
0.0323635
0.0378345
0.0425911
0.0471239
0.0517022
0.05648
0.0615352
0.0668962
0.0725637
0.078528
0.0847776
0.0913027
0.0980961
0.105153
0.11247
0.120046
0.12788
0.135974
0.144328
0.152945
0.161829
0.170984
0.180414
0.190124
0.20012
0.210409
0.220995
0.231888
0.243093
0.254618
0.266472
0.278663
0.291198
0.304087
0.317338
0.33096
0.344961
0.359351
0.374138
0.38933
0.404935
0.420962
0.437419
0.454316
0.471661
0.489464
0.507733
0.526476
0.545701
0.565414
0.585622
0.606331
0.627545
0.649271
0.671511
0.694268
0.717546
0.741344
0.765664
0.790506
0.815867
0.841745
0.868137
0.895038
0.922441
0.95034
0.978727
1.00759
1.03692
1.06671
1.09693
1.12759
1.15865
1.19011
1.22194
1.25413
1.28665
1.3195
1.35263
1.38604
1.41969
1.45356
1.48763
1.52188
1.55626
1.59076
1.62535
1.65999
1.69465
1.7293
1.76389
1.7984
1.83278
1.867
1.901
1.93475
1.9682
2.00131
2.03402
2.06615
2.09771
2.12868
2.15903
2.18871
2.2177
2.24596
2.27346
2.30016
2.32602
2.35102
2.37511
2.39827
2.42045
2.44163
2.46177
2.48084
2.49881
2.51565
2.53132
2.54582
2.5591
2.57115
2.58194
2.59147
2.5997
2.60664
2.61225
2.61654
2.6195
2.62113
2.62142
2.62038
2.61802
2.61434
2.60936
2.6031
2.59557
2.5868
2.57681
2.56563
2.5533
2.53985
2.52532
2.50975
2.49318
2.47567
2.45726
2.43799
2.41791
2.3971
2.37558
2.35342
2.33071
2.30739
2.28367
2.2596
2.23519
2.21058
2.18579
2.1609
2.13601
2.11122
2.08663
2.06223
2.03801
2.014
1.99025
1.96679
1.94367
1.92092
1.89858
1.8767
1.85532
1.8345
1.8143
1.79483
1.776
1.75808
0.0165221
0.0311862
0.0400143
0.0465517
0.0521719
0.0574525
0.0627061
0.0681139
0.0737761
0.0797407
0.0860232
0.0926232
0.0995335
0.106746
0.114253
0.12205
0.130135
0.138505
0.147161
0.156104
0.165337
0.174863
0.184686
0.194811
0.205244
0.21599
0.227055
0.238448
0.250175
0.262243
0.274662
0.287439
0.300583
0.314103
0.328008
0.342307
0.357011
0.372128
0.387669
0.403643
0.42006
0.436929
0.45426
0.472065
0.490351
0.509131
0.528414
0.54821
0.568529
0.589381
0.610775
0.63272
0.655223
0.678291
0.701933
0.726152
0.750956
0.776348
0.802332
0.828911
0.856086
0.883857
0.912225
0.941186
0.970739
1.00088
1.0316
1.06289
1.09474
1.12715
1.1601
1.19358
1.22757
1.26205
1.29702
1.33244
1.3683
1.40457
1.44123
1.47827
1.51564
1.55333
1.5913
1.62954
1.66801
1.70668
1.74551
1.78449
1.82358
1.86273
1.90192
1.9411
1.98024
2.01929
2.05821
2.09695
2.13546
2.17368
2.21158
2.2491
2.28605
2.3224
2.35811
2.39314
2.42744
2.46099
2.49373
2.52564
2.55667
2.58679
2.61595
2.64411
2.67124
2.69729
2.72224
2.74604
2.76866
2.79006
2.81021
2.82908
2.84663
2.86284
2.87769
2.89113
2.90317
2.91377
2.92292
2.9306
2.93681
2.94152
2.94473
2.94645
2.94668
2.94541
2.94266
2.93844
2.93275
2.92562
2.91708
2.90714
2.89585
2.88322
2.86929
2.85411
2.83773
2.82017
2.80149
2.78174
2.76098
2.73926
2.71662
2.69316
2.66888
2.64386
2.61827
2.59208
2.56541
2.53834
2.51091
2.48322
2.45532
2.42728
2.3992
2.37117
2.34327
2.31551
2.28793
2.26055
2.23343
2.20662
2.18017
2.15414
2.12858
2.10356
2.07916
2.05549
2.03266
2.01086
1.99006
1.97055
0.0206314
0.0366554
0.0467266
0.0542014
0.0605924
0.0665343
0.0723693
0.0783002
0.0844471
0.0908762
0.0976186
0.104685
0.112076
0.119786
0.127811
0.136147
0.144791
0.153743
0.163004
0.172575
0.182459
0.192662
0.203187
0.214041
0.225229
0.236758
0.248637
0.260871
0.27347
0.286442
0.299795
0.31354
0.327684
0.342239
0.357214
0.372619
0.388465
0.404763
0.421523
0.438757
0.456475
0.474689
0.493411
0.512652
0.532423
0.552738
0.573607
0.595042
0.617056
0.639659
0.662863
0.686678
0.711114
0.73618
0.761885
0.788238
0.815246
0.842914
0.871249
0.900255
0.929935
0.96029
0.991323
1.02303
1.05541
1.08846
1.12218
1.15655
1.19158
1.22723
1.26352
1.30041
1.3379
1.37596
1.41457
1.45372
1.49338
1.53352
1.57412
1.61514
1.65657
1.69836
1.74049
1.78293
1.82564
1.86859
1.91175
1.95507
1.99853
2.04208
2.08569
2.12931
2.17289
2.21639
2.25976
2.30293
2.34586
2.38847
2.43071
2.47252
2.51367
2.55414
2.59388
2.63285
2.67101
2.7083
2.74468
2.78012
2.81456
2.84796
2.88028
2.91148
2.94152
2.97035
2.99793
3.02423
3.0492
3.07282
3.09503
3.11581
3.13513
3.15295
3.16926
3.18402
3.19721
3.20881
3.21881
3.22718
3.23393
3.23903
3.24248
3.24429
3.24444
3.24296
3.23985
3.23512
3.22878
3.22086
3.21139
3.20038
3.18789
3.17392
3.15853
3.14176
3.12366
3.10428
3.08364
3.06183
3.03893
3.01492
2.98989
2.96401
2.93726
2.90973
2.88152
2.85269
2.82331
2.79348
2.76324
2.73268
2.70188
2.6709
2.63982
2.60873
2.57772
2.54681
2.51604
2.48547
2.45515
2.42514
2.39551
2.36632
2.33766
2.3096
2.28227
2.2558
2.23035
2.2061
2.18302
2.16131
0.0245379
0.0413198
0.052418
0.0606968
0.0677592
0.0742791
0.0806176
0.0869917
0.0935358
0.100331
0.107422
0.114832
0.122568
0.130633
0.139024
0.147741
0.156782
0.166148
0.17584
0.185862
0.196216
0.206909
0.217946
0.229333
0.241078
0.253187
0.265669
0.278533
0.291787
0.30544
0.319503
0.333984
0.348895
0.364246
0.380049
0.396314
0.413053
0.430278
0.448002
0.466236
0.484995
0.50429
0.524135
0.544544
0.56553
0.587107
0.60929
0.632091
0.655525
0.679605
0.704345
0.729758
0.755856
0.782651
0.810154
0.838376
0.867327
0.897015
0.927449
0.958634
0.990576
1.02328
1.05675
1.09098
1.12597
1.16173
1.19825
1.23551
1.27351
1.31225
1.3517
1.39186
1.4327
1.4742
1.51635
1.55911
1.60246
1.64638
1.69083
1.73578
1.78119
1.82704
1.87328
1.91988
1.9668
2.01401
2.06146
2.10912
2.15694
2.20489
2.25291
2.30096
2.34899
2.39694
2.44476
2.49237
2.53972
2.58674
2.63333
2.67938
2.72471
2.76926
2.813
2.85588
2.89783
2.93882
2.97878
3.01768
3.05546
3.09208
3.12749
3.16165
3.19451
3.22602
3.25615
3.28485
3.31209
3.33782
3.362
3.38461
3.4056
3.42495
3.44263
3.45861
3.47288
3.48542
3.4962
3.50521
3.51245
3.5179
3.52156
3.52343
3.52351
3.52181
3.51835
3.51313
3.50618
3.49751
3.48715
3.47514
3.46151
3.4463
3.42953
3.41127
3.39157
3.37049
3.348
3.32427
3.29936
3.2733
3.24616
3.21805
3.18902
3.15914
3.12852
3.09721
3.06529
3.03285
2.99995
2.96668
2.93311
2.89931
2.86536
2.83134
2.79734
2.7634
2.72957
2.6959
2.66247
2.62935
2.59661
2.56433
2.53261
2.50155
2.47129
2.44199
2.41382
2.38695
2.3613
2.337
0.0281151
0.0451884
0.0571076
0.066053
0.0736797
0.0806893
0.0874542
0.094199
0.101067
0.10815
0.115504
0.123162
0.131139
0.139445
0.148082
0.157053
0.166358
0.176
0.185981
0.196306
0.206979
0.218006
0.229394
0.24115
0.253282
0.265798
0.278707
0.292019
0.305742
0.319888
0.334466
0.349489
0.364966
0.38091
0.397333
0.414248
0.431668
0.449606
0.468076
0.487093
0.506671
0.526825
0.54757
0.568923
0.590898
0.613513
0.636783
0.660725
0.685356
0.710691
0.736747
0.76354
0.791084
0.819396
0.848488
0.878374
0.909068
0.94058
0.972922
1.0061
1.04013
1.07501
1.11075
1.14734
1.1848
1.22312
1.2623
1.30233
1.3432
1.38491
1.42744
1.47077
1.51488
1.55976
1.60538
1.65171
1.69872
1.74638
1.79466
1.84352
1.89292
1.94282
1.99318
2.04396
2.09511
2.1466
2.19837
2.25039
2.3026
2.35496
2.40743
2.45994
2.51244
2.56487
2.61716
2.66924
2.72103
2.77245
2.82342
2.87367
2.92313
2.97174
3.01944
3.06616
3.11186
3.15648
3.19996
3.24225
3.28329
3.32304
3.36144
3.39846
3.43404
3.46813
3.5007
3.53169
3.56108
3.58881
3.61485
3.63916
3.66171
3.68247
3.70141
3.71852
3.73377
3.74714
3.75862
3.76819
3.77585
3.78158
3.78539
3.78728
3.78725
3.78532
3.78149
3.77579
3.76822
3.75883
3.74762
3.73465
3.71995
3.70356
3.68548
3.6658
3.64462
3.62195
3.59783
3.57237
3.54564
3.51769
3.48859
3.45843
3.42729
3.39523
3.36234
3.3287
3.29439
3.25949
3.22408
3.18822
3.15201
3.1155
3.0788
3.04196
3.00508
2.9682
2.9314
2.89473
2.85827
2.8221
2.78631
2.75098
2.71622
2.68217
2.64897
2.6168
2.5858
2.55614
2.52769
2.50056
0.0313202
0.0483109
0.0608616
0.07034
0.0784221
0.0858295
0.0929409
0.0999844
0.107108
0.11441
0.121953
0.129779
0.137912
0.146366
0.15515
0.164269
0.173727
0.183529
0.193678
0.20418
0.215042
0.226269
0.23787
0.249852
0.262225
0.274997
0.288178
0.301779
0.31581
0.330282
0.345207
0.360598
0.376466
0.392825
0.409689
0.427071
0.444986
0.463451
0.482479
0.502089
0.522295
0.543117
0.564571
0.586676
0.60945
0.632912
0.657081
0.681977
0.707619
0.734027
0.761218
0.789214
0.818032
0.84769
0.878207
0.909598
0.94188
0.975068
1.00917
1.04421
1.08019
1.11713
1.15502
1.19387
1.2337
1.27449
1.31624
1.35896
1.40263
1.44725
1.4928
1.53926
1.58661
1.63484
1.68391
1.7338
1.78446
1.83588
1.88799
1.94078
1.99418
2.04817
2.10268
2.15766
2.21308
2.26888
2.325
2.38141
2.43804
2.49485
2.55178
2.60876
2.66574
2.72266
2.77942
2.83596
2.89218
2.94797
3.00321
3.05762
3.11114
3.16371
3.21527
3.26576
3.3151
3.36323
3.4101
3.45565
3.49982
3.54256
3.58382
3.62354
3.66169
3.6982
3.73305
3.76618
3.79755
3.82712
3.85485
3.88071
3.90465
3.92667
3.94672
3.9648
3.98089
3.99497
4.00703
4.01704
4.02501
4.03093
4.0348
4.03663
4.03643
4.03421
4.02999
4.02378
4.0156
4.00548
3.99343
3.97953
3.96382
3.94632
3.92707
3.90614
3.88361
3.85951
3.83391
3.80687
3.77848
3.7488
3.71791
3.68587
3.65277
3.61869
3.58371
3.5479
3.51136
3.47415
3.43635
3.39806
3.35934
3.32026
3.28092
3.24139
3.20174
3.16205
3.12238
3.08281
3.04341
3.00427
2.96549
2.92716
2.88942
2.8524
2.81625
2.78115
2.74725
2.71468
2.68326
2.65313
0.0341373
0.050751
0.0637643
0.073652
0.0820853
0.0897992
0.0971762
0.104446
0.111757
0.119211
0.126878
0.134803
0.143017
0.151541
0.160387
0.169564
0.17908
0.188941
0.199153
0.209724
0.220661
0.231971
0.243663
0.255746
0.268229
0.281124
0.294441
0.308191
0.322387
0.337039
0.352162
0.367769
0.383874
0.400491
0.417637
0.435326
0.453576
0.472404
0.491829
0.511868
0.53254
0.553867
0.575868
0.598565
0.621978
0.646131
0.671044
0.696742
0.723246
0.75058
0.778767
0.807828
0.837787
0.868665
0.900484
0.933264
0.967024
1.00178
1.03756
1.07437
1.11222
1.15113
1.1911
1.23215
1.27428
1.31749
1.36179
1.40716
1.45361
1.50111
1.54967
1.59925
1.64985
1.70143
1.75396
1.80742
1.86176
1.91695
1.97293
2.02968
2.08712
2.14522
2.20391
2.26314
2.32284
2.38298
2.44347
2.50428
2.56533
2.62657
2.68795
2.74938
2.81081
2.87216
2.93334
2.99426
3.05482
3.11492
3.17421
3.23261
3.29003
3.34641
3.40166
3.45572
3.50851
3.55997
3.61003
3.65864
3.70572
3.75124
3.79512
3.83733
3.87782
3.91653
3.95342
3.98845
4.02159
4.05278
4.08197
4.10915
4.13427
4.15732
4.17829
4.19714
4.21388
4.22849
4.24095
4.25125
4.25938
4.26535
4.26917
4.27084
4.27038
4.2678
4.26312
4.25636
4.24756
4.23673
4.22391
4.20915
4.1925
4.174
4.15369
4.13163
4.10788
4.0825
4.05555
4.02711
3.99723
3.96599
3.93346
3.89972
3.86485
3.82893
3.79203
3.75424
3.71563
3.67628
3.63629
3.59572
3.55465
3.51317
3.47134
3.42926
3.38701
3.34464
3.30224
3.25988
3.21766
3.17566
3.13398
3.09275
3.05208
3.01213
2.97305
2.93502
2.89818
2.86262
2.82815
2.79495
0.0365651
0.052578
0.0659069
0.0760934
0.0847813
0.0927147
0.100278
0.107701
0.115133
0.122676
0.130403
0.138363
0.146593
0.155116
0.163949
0.173106
0.182597
0.192431
0.202615
0.213159
0.224071
0.23536
0.247036
0.259109
0.27159
0.28449
0.297822
0.311598
0.325831
0.340536
0.355726
0.371417
0.387624
0.404365
0.421656
0.439516
0.457964
0.47702
0.496704
0.517038
0.538043
0.559743
0.582162
0.605323
0.629253
0.653975
0.679517
0.705904
0.733163
0.761321
0.790405
0.820442
0.851457
0.883476
0.916525
0.950628
0.985809
1.02209
1.05949
1.09803
1.13772
1.17859
1.22063
1.26387
1.3083
1.35394
1.40078
1.44882
1.49805
1.54847
1.60006
1.6528
1.70666
1.76163
1.81766
1.87473
1.93278
1.99178
2.05167
2.1124
2.17392
2.23615
2.29905
2.36253
2.42653
2.49099
2.55584
2.62101
2.68644
2.75205
2.81779
2.88358
2.94934
3.01498
3.08042
3.14556
3.21028
3.27433
3.33746
3.39959
3.46063
3.52053
3.57919
3.63654
3.69249
3.74697
3.79992
3.85126
3.90095
3.94893
3.99513
4.03951
4.08201
4.1226
4.16122
4.19785
4.23244
4.26495
4.29531
4.32351
4.34953
4.37335
4.39495
4.41433
4.43147
4.44637
4.45903
4.4694
4.47751
4.48337
4.48699
4.48839
4.48756
4.48455
4.47937
4.47205
4.46262
4.45111
4.43755
4.422
4.4045
4.38508
4.36381
4.34073
4.31591
4.2894
4.26126
4.23156
4.20037
4.16776
4.1338
4.09856
4.06212
4.02455
3.98594
3.94637
3.9059
3.86464
3.82264
3.78
3.73679
3.69309
3.64898
3.60454
3.55985
3.51499
3.47003
3.42506
3.38017
3.33545
3.29102
3.24699
3.2035
3.1607
3.11875
3.07783
3.03805
2.99951
2.96198
2.92568
0.0386144
0.0538637
0.0673819
0.0777698
0.0866257
0.0946981
0.102373
0.109879
0.117366
0.124936
0.132663
0.140599
0.148782
0.157242
0.165998
0.175065
0.184458
0.194188
0.204264
0.214696
0.225496
0.236673
0.248239
0.260205
0.272584
0.285388
0.298631
0.312326
0.32649
0.341136
0.356283
0.371947
0.388145
0.404898
0.422225
0.440146
0.458684
0.477861
0.497702
0.51823
0.539471
0.561451
0.584199
0.607741
0.632108
0.657327
0.68343
0.710446
0.738407
0.767343
0.797285
0.828265
0.860313
0.893458
0.927731
0.963159
0.99977
1.03759
1.07664
1.11695
1.15852
1.20139
1.24556
1.29104
1.33784
1.38597
1.43542
1.4862
1.5383
1.5917
1.64639
1.70235
1.75955
1.81797
1.87756
1.93828
2.0001
2.06294
2.12677
2.19152
2.25712
2.3235
2.39059
2.45829
2.52655
2.59527
2.66439
2.73382
2.80349
2.87333
2.94326
3.01319
3.08305
3.15275
3.22217
3.29121
3.35969
3.42724
3.49378
3.55922
3.62347
3.68647
3.74812
3.80834
3.86701
3.92408
3.97947
4.03313
4.08498
4.13498
4.18307
4.22919
4.27329
4.31533
4.35528
4.39309
4.42875
4.46219
4.49334
4.5222
4.54876
4.57301
4.59493
4.61451
4.63176
4.64668
4.65925
4.66949
4.67738
4.68296
4.68624
4.68722
4.68595
4.68243
4.6767
4.66879
4.65872
4.64654
4.63228
4.61599
4.5977
4.57747
4.55534
4.53138
4.50562
4.47813
4.44898
4.41822
4.38591
4.35213
4.31695
4.28043
4.24265
4.20368
4.1636
4.12249
4.08042
4.03748
3.99373
3.94927
3.90416
3.85848
3.81232
3.76576
3.71887
3.67173
3.62443
3.57705
3.52969
3.48244
3.43543
3.38877
3.34261
3.29709
3.25239
3.20866
3.16602
3.12455
3.084
3.04466
0.0403077
0.0546811
0.0682806
0.078785
0.0877319
0.0958703
0.103587
0.111111
0.118591
0.126128
0.133797
0.141652
0.149734
0.158073
0.166692
0.175609
0.18484
0.194398
0.204296
0.214544
0.225157
0.236144
0.24752
0.259297
0.27149
0.284112
0.297179
0.310708
0.324715
0.339217
0.354235
0.369787
0.385894
0.402578
0.419862
0.437771
0.456328
0.475562
0.495498
0.516167
0.537596
0.559817
0.582861
0.606759
0.631546
0.657255
0.683921
0.711579
0.740263
0.77001
0.800854
0.832831
0.865975
0.900321
0.935902
0.97275
1.0109
1.05037
1.09119
1.1334
1.177
1.22201
1.26845
1.31632
1.36563
1.4164
1.46861
1.52227
1.57737
1.63388
1.6918
1.7511
1.81174
1.87369
1.93691
2.00136
2.06697
2.13369
2.20146
2.27021
2.33986
2.41035
2.48157
2.5534
2.62578
2.69861
2.77181
2.84528
2.91895
2.99272
3.06652
3.14025
3.21382
3.28712
3.36005
3.43247
3.50397
3.57445
3.64381
3.71196
3.77882
3.84431
3.90839
3.97088
4.03168
4.09074
4.148
4.20338
4.25683
4.30829
4.3577
4.40501
4.45018
4.49315
4.53389
4.57237
4.60857
4.64242
4.67391
4.70301
4.72971
4.754
4.77588
4.79534
4.81239
4.82703
4.83928
4.84913
4.8566
4.8617
4.86446
4.86491
4.86306
4.85895
4.85261
4.84406
4.83334
4.8205
4.80556
4.78858
4.76959
4.74865
4.72579
4.70107
4.67455
4.64626
4.61629
4.58467
4.55147
4.51677
4.48061
4.44307
4.40422
4.36412
4.32286
4.28049
4.23711
4.19278
4.14757
4.10157
4.05486
4.0075
3.95957
3.91116
3.86235
3.81321
3.76384
3.71431
3.66473
3.6152
3.56583
3.51676
3.46812
3.42007
3.37277
3.32638
3.281
3.23671
3.19327
3.15101
0.0416818
0.0551047
0.0686927
0.0792393
0.0882093
0.0963484
0.104044
0.111525
0.118939
0.126388
0.133946
0.141669
0.149597
0.157764
0.166193
0.174906
0.18392
0.193249
0.202909
0.212913
0.223276
0.23401
0.245132
0.256656
0.268598
0.280975
0.293805
0.307106
0.320897
0.3352
0.350036
0.365428
0.3814
0.397978
0.415189
0.43306
0.451622
0.470905
0.490942
0.511765
0.53341
0.555909
0.5793
0.603619
0.628905
0.655196
0.682531
0.710951
0.740496
0.771204
0.803116
0.836271
0.870706
0.90646
0.943569
0.982067
1.02199
1.06337
1.10623
1.1506
1.1965
1.24393
1.29291
1.34344
1.39553
1.44918
1.50439
1.56116
1.61946
1.67928
1.74059
1.80337
1.86758
1.93317
2.00009
2.06829
2.13771
2.20829
2.27994
2.35259
2.42618
2.50063
2.57581
2.65155
2.72777
2.80439
2.88131
2.95843
3.03565
3.11287
3.18999
3.26693
3.34357
3.4198
3.49549
3.57024
3.64397
3.71656
3.78794
3.85799
3.92664
3.9938
4.0594
4.12331
4.18545
4.24574
4.30411
4.36049
4.41482
4.46705
4.51711
4.56495
4.61053
4.65381
4.69476
4.73334
4.76952
4.80328
4.8346
4.86345
4.88983
4.91374
4.93517
4.95413
4.97063
4.98468
4.9963
5.00551
5.01231
5.01673
5.0188
5.01855
5.01601
5.01121
5.00418
4.99496
4.98358
4.97009
4.95453
4.93693
4.91734
4.89579
4.87234
4.84704
4.81993
4.79106
4.76048
4.72826
4.69443
4.65907
4.62223
4.58397
4.54435
4.50345
4.46132
4.41804
4.37368
4.3283
4.28198
4.23479
4.18681
4.13811
4.08876
4.03884
3.98844
3.93763
3.8865
3.83513
3.78364
3.73211
3.68067
3.62945
3.5786
3.52825
3.47858
3.42973
3.3818
3.33488
3.28872
3.24371
0.0427937
0.0552127
0.068708
0.0792309
0.0881635
0.0962449
0.103863
0.111245
0.11854
0.125849
0.133247
0.14079
0.148519
0.156468
0.164663
0.173126
0.181876
0.190931
0.200308
0.210022
0.22009
0.230528
0.241353
0.252584
0.26424
0.276339
0.288903
0.301954
0.315513
0.329607
0.34426
0.359499
0.375355
0.391856
0.409035
0.426926
0.445563
0.464983
0.485226
0.506331
0.528338
0.551284
0.57521
0.600159
0.626174
0.653301
0.681583
0.711065
0.741791
0.773804
0.807147
0.841861
0.877987
0.915564
0.954628
0.995215
1.03736
1.08109
1.12644
1.17345
1.22214
1.27244
1.32438
1.37798
1.43323
1.49014
1.54868
1.60886
1.67064
1.73399
1.79889
1.8653
1.93317
2.00244
2.07307
2.14498
2.21812
2.29239
2.36772
2.44402
2.5212
2.59915
2.67776
2.7569
2.83643
2.91626
2.99627
3.07634
3.15636
3.23622
3.3158
3.39502
3.47374
3.5518
3.62887
3.7049
3.77979
3.85346
3.9258
3.99672
4.06614
4.13396
4.20011
4.2645
4.32702
4.3876
4.44617
4.50266
4.55701
4.60916
4.65906
4.70665
4.7519
4.79476
4.83522
4.87323
4.90878
4.94185
4.97242
5.00049
5.02604
5.04908
5.06962
5.08767
5.10324
5.11636
5.12704
5.13532
5.1412
5.14473
5.14592
5.14483
5.14148
5.1359
5.12814
5.11823
5.10621
5.09211
5.07598
5.05786
5.03778
5.01579
4.99193
4.96624
4.93877
4.90956
4.87865
4.8461
4.81195
4.77625
4.73906
4.70042
4.66041
4.61906
4.57646
4.53264
4.48769
4.44166
4.39463
4.34665
4.29781
4.24816
4.19778
4.14676
4.09515
4.04305
3.99055
3.93771
3.88466
3.83149
3.77832
3.72528
3.67251
3.62017
3.56839
3.51735
3.46712
3.41781
3.36918
3.32165
0.0437319
0.0550913
0.0684195
0.0788584
0.0876989
0.0956699
0.103158
0.110392
0.11752
0.124644
0.131839
0.139159
0.146649
0.154342
0.162266
0.170445
0.178901
0.187654
0.196721
0.206122
0.215877
0.226004
0.236526
0.247464
0.258842
0.270684
0.283013
0.295854
0.309237
0.323191
0.337747
0.35294
0.368805
0.385377
0.402697
0.420805
0.439744
0.459559
0.480296
0.502008
0.524754
0.548551
0.573448
0.599497
0.626749
0.655255
0.685062
0.716217
0.748767
0.782756
0.818226
0.855217
0.893767
0.933912
0.975684
1.01911
1.06422
1.11104
1.15958
1.20986
1.26189
1.31564
1.37111
1.42829
1.48717
1.54774
1.60998
1.67385
1.73933
1.80638
1.87494
1.94499
2.01645
2.08927
2.16339
2.23872
2.3152
2.39273
2.47123
2.55059
2.63071
2.71148
2.79277
2.87444
2.95638
3.03843
3.12047
3.20238
3.284
3.36525
3.44596
3.52607
3.60529
3.68346
3.76055
3.83649
3.91121
3.98461
4.05661
4.12711
4.19604
4.26331
4.32882
4.3925
4.45426
4.51402
4.57172
4.62727
4.68063
4.73173
4.78053
4.82697
4.87103
4.91266
4.95184
4.98855
5.02277
5.05449
5.08369
5.11039
5.13456
5.15624
5.17542
5.19213
5.20639
5.21822
5.22766
5.23474
5.23947
5.2419
5.24206
5.24
5.23575
5.22934
5.22083
5.21024
5.19761
5.18298
5.1664
5.1479
5.12751
5.10527
5.08122
5.0554
5.02784
4.99858
4.96766
4.93512
4.901
4.86534
4.82819
4.78959
4.74959
4.70824
4.66559
4.62169
4.5766
4.53038
4.48309
4.43478
4.38554
4.3354
4.28446
4.23278
4.18042
4.12748
4.07403
4.02017
3.96598
3.91157
3.85707
3.80259
3.74828
3.69429
3.64076
3.58784
3.53563
3.48423
3.43343
3.38366
0.0446279
0.0548443
0.0679344
0.0782317
0.0869278
0.0947387
0.10205
0.10909
0.116008
0.122906
0.129859
0.136924
0.144144
0.151557
0.159191
0.167074
0.175228
0.183679
0.192449
0.201558
0.21103
0.22089
0.231165
0.241884
0.253081
0.26479
0.277031
0.289834
0.303238
0.317284
0.332011
0.347464
0.363688
0.380729
0.398636
0.417461
0.437256
0.458076
0.479976
0.503012