/*--------------------------------*- C++ -*----------------------------------*\
| =========                 |                                                 |
| \\      /  F ield         | OpenFOAM: The Open Source CFD Toolbox           |
|  \\    /   O peration     | Version:  2.2.x                                 |
|   \\  /    A nd           | Web:      www.OpenFOAM.org                      |
|    \\/     M anipulation  |                                                 |
\*---------------------------------------------------------------------------*/
FoamFile
{
    version     2.0;
    format      ascii;
    class       volScalarField;
    location    "750";
    object      nut;
}
// * * * * * * * * * * * * * * * * * * * * * * * * * * * * * * * * * * * * * //

dimensions      [0 2 -1 0 0 0 0];

internalField   nonuniform List<scalar> 
12225
(
3.09428e-05
3.71944e-05
4.0947e-05
4.3145e-05
4.43824e-05
4.5024e-05
4.52963e-05
4.53419e-05
4.52504e-05
4.50785e-05
4.48616e-05
4.46222e-05
4.43743e-05
4.41265e-05
4.38841e-05
4.365e-05
4.34223e-05
4.32212e-05
0.000116613
6.93679e-05
5.16049e-05
4.24146e-05
3.71538e-05
3.39209e-05
3.18288e-05
3.043e-05
2.94807e-05
2.88382e-05
2.84144e-05
2.81522e-05
2.80128e-05
2.79689e-05
2.80006e-05
2.80918e-05
2.82287e-05
2.83721e-05
0.000365112
0.000223242
0.000162457
0.000127914
0.000106039
9.12436e-05
8.07023e-05
7.28773e-05
6.68792e-05
6.21632e-05
5.83793e-05
5.52934e-05
5.27439e-05
5.06148e-05
4.88202e-05
4.72894e-05
4.59521e-05
4.47821e-05
0.00064461
0.000479077
0.000378699
0.000313447
0.000268352
0.000235786
0.000211394
0.000192559
0.000177644
0.000165582
0.000155652
0.00014735
0.000140319
0.000134294
0.000129077
0.000124514
0.000120482
0.000116973
0.000789269
0.000696798
0.000611915
0.000542049
0.000486074
0.000441339
0.0004053
0.00037592
0.00035167
0.000331412
0.0003143
0.000299698
0.000287124
0.000276206
0.000266654
0.000258242
0.000250801
0.000244303
0.000836146
0.000802042
0.000758902
0.000713886
0.000670963
0.000631878
0.000597095
0.000566459
0.000539571
0.000515972
0.000495218
0.000476908
0.000460696
0.00044629
0.00043344
0.000421944
0.000411643
0.000402523
0.000848366
0.000838515
0.000822833
0.000802885
0.000780483
0.000757157
0.000733986
0.000711649
0.000690524
0.000670787
0.000652493
0.000635616
0.000620093
0.000605837
0.000592755
0.000580758
0.000569771
0.000559845
0.000850836
0.000847527
0.000841611
0.000833095
0.000822395
0.000810101
0.000796808
0.000783023
0.000769142
0.000755456
0.000742163
0.000729394
0.000717225
0.000705697
0.000694825
0.000684609
0.000675048
0.00066626
0.000851475
0.000850225
0.000848
0.000844577
0.000839911
0.000834106
0.000827351
0.000819869
0.00081188
0.000803584
0.00079515
0.000786711
0.000778375
0.00077022
0.000762306
0.000754674
0.000747363
0.000740504
0.000851641
0.00085103
0.00085015
0.000848866
0.000847085
0.000844763
0.000841907
0.000838557
0.000834779
0.000830651
0.000826251
0.000821656
0.000816935
0.000812151
0.000807354
0.000802591
0.000797905
0.000793402
0.000851672
0.000851219
0.000850723
0.000850137
0.000849415
0.000848519
0.000847423
0.000846115
0.000844598
0.00084288
0.000840981
0.000838924
0.000836735
0.000834439
0.000832063
0.000829632
0.000827172
0.000824751
0.000851674
0.000851249
0.000850836
0.000850423
0.000849995
0.000849538
0.000849038
0.000848483
0.000847866
0.000847182
0.000846428
0.000845608
0.000844724
0.000843781
0.000842786
0.000841748
0.000840676
0.000839603
0.000851671
0.000851248
0.000850846
0.000850463
0.000850095
0.000849737
0.000849385
0.000849033
0.000848679
0.000848317
0.000847946
0.000847562
0.000847166
0.000846756
0.000846331
0.000845894
0.000845447
0.000845007
0.000851668
0.000851243
0.000850841
0.00085046
0.000850099
0.000849755
0.000849428
0.000849115
0.000848814
0.000848523
0.000848242
0.000847968
0.000847701
0.000847439
0.000847181
0.000846927
0.000846679
0.000846448
0.000851666
0.000851239
0.000850835
0.000850452
0.00085009
0.000849746
0.00084942
0.00084911
0.000848815
0.000848534
0.000848266
0.00084801
0.000847765
0.000847531
0.000847306
0.00084709
0.000846885
0.0008467
0.000851665
0.000851236
0.000850831
0.000850447
0.000850083
0.000849737
0.000849409
0.000849098
0.000848802
0.00084852
0.000848252
0.000847996
0.000847752
0.00084752
0.000847297
0.000847085
0.000846885
0.000846706
0.000851664
0.000851235
0.000850828
0.000850443
0.000850078
0.000849731
0.000849402
0.000849089
0.000848791
0.000848508
0.000848238
0.000847981
0.000847736
0.000847502
0.000847278
0.000847065
0.000846863
0.000846684
0.000851664
0.000851234
0.000850827
0.000850442
0.000850076
0.000849728
0.000849398
0.000849085
0.000848786
0.000848502
0.000848231
0.000847973
0.000847726
0.000847491
0.000847266
0.000847052
0.000846849
0.000846669
0.000851664
0.000851235
0.000850828
0.000850442
0.000850076
0.000849729
0.000849399
0.000849085
0.000848786
0.000848501
0.00084823
0.00084797
0.000847723
0.000847486
0.00084726
0.000847044
0.00084684
0.000846658
0.000851665
0.000851236
0.00085083
0.000850444
0.000850079
0.000849731
0.000849401
0.000849086
0.000848785
0.000848498
0.000848222
0.000847958
0.000847704
0.000847459
0.000847223
0.000846995
0.000846777
0.000846579
0.000851666
0.000851238
0.000850832
0.000850446
0.000850078
0.000849725
0.000849384
0.000849054
0.000848731
0.000848414
0.0008481
0.000847788
0.000847476
0.000847164
0.00084685
0.000846535
0.00084622
0.000845917
0.000851667
0.000851237
0.000850823
0.000850417
0.00085001
0.000849592
0.000849154
0.000848688
0.000848189
0.000847651
0.000847073
0.000846453
0.000845792
0.000845093
0.000844357
0.000843588
0.000842793
0.000841991
0.000851661
0.000851195
0.000850681
0.000850075
0.000849336
0.000848431
0.000847339
0.000846051
0.000844568
0.000842899
0.000841061
0.000839072
0.000836955
0.00083473
0.00083242
0.000830047
0.000827631
0.000825218
0.00085157
0.000850737
0.000849405
0.000847416
0.000844692
0.000841229
0.000837082
0.000832341
0.000827114
0.000821513
0.000815641
0.000809593
0.000803453
0.000797288
0.000791155
0.000785099
0.000779161
0.000773414
0.000850707
0.000847137
0.000840905
0.000832091
0.000821121
0.000808562
0.000794982
0.000780866
0.000766599
0.000752465
0.000738666
0.000725337
0.000712564
0.000700392
0.000688844
0.00067792
0.000667614
0.000657967
0.000844113
0.000825224
0.00079853
0.000767732
0.00073565
0.000704135
0.000674225
0.000646408
0.00062084
0.000597497
0.000576261
0.000556971
0.000539453
0.000523533
0.000509049
0.000495853
0.000483813
0.000472859
0.000803425
0.000727158
0.00065272
0.000587766
0.000532945
0.000487162
0.000448907
0.000416763
0.000389559
0.000366362
0.000346435
0.000329196
0.000314182
0.000301027
0.000289434
0.000279168
0.000270035
0.000261903
0.000625871
0.000466125
0.000370237
0.000306332
0.000260964
0.000227483
0.000201987
0.000182061
0.000166157
0.000153239
0.00014259
0.000133698
0.00012619
0.000119789
0.000114285
0.000109519
0.00010537
0.00010176
0.000254186
0.000158464
0.000118168
9.48477e-05
7.98521e-05
6.96493e-05
6.24038e-05
5.70869e-05
5.30854e-05
5.00132e-05
4.76163e-05
4.57217e-05
4.42084e-05
4.29894e-05
4.20014e-05
4.1197e-05
4.0541e-05
4.00127e-05
3.69327e-05
4.20256e-05
4.57632e-05
4.86729e-05
5.10793e-05
5.30433e-05
5.4625e-05
5.58815e-05
5.68653e-05
5.76232e-05
5.81955e-05
5.86165e-05
5.8915e-05
5.91148e-05
5.92356e-05
5.92936e-05
5.93022e-05
5.92711e-05
3.43261e-06
9.00262e-06
1.00682e-05
1.08215e-05
1.15093e-05
1.21436e-05
1.27999e-05
1.36615e-05
1.46771e-05
1.57729e-05
1.69031e-05
1.80399e-05
1.91691e-05
2.02837e-05
2.13804e-05
2.24574e-05
2.35143e-05
2.45513e-05
2.55692e-05
2.65689e-05
2.75515e-05
2.85183e-05
2.94706e-05
3.04096e-05
3.13366e-05
3.22528e-05
3.31595e-05
3.40578e-05
3.49488e-05
3.58336e-05
3.67132e-05
3.75888e-05
3.84614e-05
3.9332e-05
4.02019e-05
4.10723e-05
4.19448e-05
4.28208e-05
4.37025e-05
4.45922e-05
4.54929e-05
4.64085e-05
4.73437e-05
4.8302e-05
4.92649e-05
5.02316e-05
5.12022e-05
5.21768e-05
5.31555e-05
5.41382e-05
5.51248e-05
5.61153e-05
5.71095e-05
5.81072e-05
5.91083e-05
6.01125e-05
6.11196e-05
6.21292e-05
6.31412e-05
6.41551e-05
6.51706e-05
6.61873e-05
6.7205e-05
6.8223e-05
6.92412e-05
7.02588e-05
7.12757e-05
7.22912e-05
7.33048e-05
7.43161e-05
7.53246e-05
7.63297e-05
7.73309e-05
7.83277e-05
7.93194e-05
8.03055e-05
8.12854e-05
8.22586e-05
8.32244e-05
8.41821e-05
8.51311e-05
8.60709e-05
8.70006e-05
8.79195e-05
8.88271e-05
8.97224e-05
9.06048e-05
9.14734e-05
9.23275e-05
9.31662e-05
9.39888e-05
9.47944e-05
9.55822e-05
9.63515e-05
9.71017e-05
9.78324e-05
9.85431e-05
9.9234e-05
9.99056e-05
0.000100559
0.000101197
0.000101823
0.000102429
0.000103009
0.000103562
0.000104088
0.000104587
0.000105058
0.000105502
0.000105917
0.000106305
0.000106663
0.000106993
0.000107293
0.000107564
0.000107805
0.000108016
0.000108196
0.000108346
0.000108465
0.000108554
0.000108611
0.000108637
0.000108633
0.000108596
0.000108529
0.00010843
0.0001083
0.000108139
0.000107947
0.000107725
0.000107472
0.000107188
0.000106875
0.000106533
0.000106161
0.000105761
0.000105332
0.000104877
0.000104395
0.000103886
0.000103352
0.000102794
0.000102212
0.000101608
0.000100981
0.000100334
9.96669e-05
9.89809e-05
9.8277e-05
9.75568e-05
9.68211e-05
9.60708e-05
9.53077e-05
9.45321e-05
9.3746e-05
9.2951e-05
9.21466e-05
9.13364e-05
9.05206e-05
8.96962e-05
8.8878e-05
8.80721e-05
8.73604e-05
8.68153e-05
8.6285e-05
8.57598e-05
8.52386e-05
8.47214e-05
8.42086e-05
8.37009e-05
8.31981e-05
8.26999e-05
8.22047e-05
8.17092e-05
8.12045e-05
8.0678e-05
8.00789e-05
7.93549e-05
7.81087e-05
4.98706e-06
2.19868e-05
4.35665e-05
5.88014e-05
6.70079e-05
7.13727e-05
7.40364e-05
7.61092e-05
7.82305e-05
8.06516e-05
8.34259e-05
8.65395e-05
8.99628e-05
9.36659e-05
9.7622e-05
0.000101807
0.000106199
0.000110779
0.00011553
0.000120436
0.000125484
0.000130661
0.000135956
0.000141362
0.000146869
0.000152469
0.000158158
0.000163929
0.000169777
0.000175698
0.000181689
0.000187744
0.000193861
0.000200036
0.000206266
0.000212546
0.000218873
0.000225241
0.000231648
0.000238088
0.000244559
0.00025106
0.000257593
0.000264173
0.00027082
0.000277545
0.000284355
0.000291254
0.000298247
0.000305337
0.000312526
0.000319817
0.000327211
0.00033471
0.000342315
0.000350027
0.000357847
0.000365775
0.000373811
0.000381955
0.000390206
0.000398564
0.000407027
0.000415594
0.000424264
0.000433036
0.000441906
0.000450874
0.000459936
0.000469091
0.000478335
0.000487667
0.000497083
0.000506581
0.000516157
0.000525809
0.000535534
0.000545328
0.000555189
0.000565113
0.000575098
0.000585138
0.000595232
0.000605374
0.00061556
0.000625785
0.000636043
0.000646327
0.00065663
0.000666943
0.000677255
0.000687554
0.000697827
0.000708058
0.000718229
0.00072832
0.000738307
0.000748164
0.00075786
0.000767361
0.000776626
0.000785452
0.000793865
0.000802093
0.00081016
0.000818067
0.000825808
0.000833381
0.000840781
0.000848002
0.00085504
0.00086189
0.000868546
0.000875003
0.000881255
0.000887297
0.000893123
0.000898726
0.000904102
0.000909244
0.000914147
0.000918805
0.000923214
0.000927369
0.000931265
0.000934897
0.00093826
0.000941351
0.000944164
0.000946697
0.000948947
0.000950911
0.000952587
0.000953975
0.000955071
0.000955876
0.000956388
0.00095661
0.000956543
0.000956189
0.000955549
0.000954626
0.000953424
0.000951949
0.000950206
0.000948197
0.000945932
0.000943419
0.000940664
0.000937673
0.000934458
0.000931028
0.00092739
0.000923559
0.000919545
0.000915352
0.000911007
0.000906513
0.000901875
0.000897142
0.000892294
0.000887288
0.000882071
0.000876162
0.000868633
0.000860524
0.000852247
0.00084393
0.000835619
0.000827335
0.000819093
0.0008109
0.000802759
0.000794668
0.000786614
0.00077857
0.000770463
0.000762163
0.000752734
0.00073311
5.98994e-06
3.70984e-05
7.26068e-05
9.70516e-05
0.000112594
0.000122546
0.000129493
0.00013515
0.000140534
0.000146158
0.000152234
0.000158818
0.000165905
0.000173462
0.000181453
0.000189843
0.000198594
0.000207677
0.000217059
0.000226715
0.000236619
0.00024675
0.000257087
0.000267614
0.000278316
0.00028918
0.000300195
0.000311352
0.000322642
0.00033406
0.000345601
0.00035726
0.000369034
0.000380921
0.00039292
0.00040503
0.000417251
0.000429584
0.000442032
0.000454599
0.00046729
0.000480114
0.000493081
0.000506205
0.0005195
0.000532977
0.000546645
0.000560512
0.000574585
0.000588869
0.000603369
0.000618091
0.000633036
0.000648209
0.000663611
0.000679244
0.00069511
0.000711208
0.00072754
0.000744103
0.000760897
0.000777919
0.000795168
0.000812641
0.000830333
0.000848241
0.000866359
0.000884683
0.000903208
0.000921926
0.000940831
0.000959917
0.000979176
0.0009986
0.00101818
0.00103791
0.00105778
0.00107778
0.00109791
0.00111815
0.00113849
0.00115892
0.00117944
0.00120003
0.00122067
0.00124136
0.00126209
0.00128282
0.00130355
0.00132426
0.00134492
0.00136551
0.001386
0.00140636
0.00142655
0.00144654
0.00146629
0.00148574
0.00150487
0.00152361
0.00154193
0.00155951
0.00157661
0.00159333
0.00160972
0.00162575
0.00164143
0.00165675
0.0016717
0.00168627
0.00170046
0.00171424
0.00172761
0.00174057
0.0017531
0.00176518
0.00177682
0.00178799
0.00179869
0.0018089
0.00181862
0.00182784
0.00183654
0.00184472
0.00185236
0.00185947
0.00186602
0.00187201
0.00187744
0.0018823
0.00188657
0.00189026
0.00189336
0.00189588
0.00189779
0.00189912
0.00189984
0.00189997
0.00189951
0.00189846
0.00189682
0.00189461
0.00189182
0.00188847
0.00188457
0.00188012
0.00187514
0.00186965
0.00186365
0.00185717
0.00185023
0.00184283
0.00183501
0.00182677
0.00181817
0.00180918
0.00179989
0.00179029
0.00178041
0.00177029
0.00175997
0.00174935
0.00173835
0.00172654
0.00171329
0.0016992
0.00168474
0.0016701
0.00165538
0.00164065
0.00162593
0.00161126
0.00159663
0.00158206
0.0015675
0.00155288
0.00153801
0.00152239
0.00150429
0.00147518
6.71625e-06
4.94689e-05
9.5446e-05
0.000128744
0.00015154
0.000167378
0.00017914
0.000188865
0.000197857
0.000206863
0.000216257
0.000226195
0.000236716
0.000247809
0.000259437
0.000271558
0.000284129
0.000297109
0.000310461
0.000324149
0.000338145
0.000352419
0.00036695
0.000381716
0.000396701
0.00041189
0.000427272
0.000442838
0.00045858
0.000474493
0.000490575
0.000506824
0.00052324
0.000539824
0.000556579
0.000573509
0.000590619
0.000607916
0.000625408
0.000643102
0.000661011
0.000679143
0.000697513
0.00071613
0.000735009
0.000754158
0.000773589
0.000793309
0.000813328
0.000833651
0.000854285
0.000875235
0.000896506
0.0009181
0.00094002
0.000962269
0.000984846
0.00100775
0.00103098
0.00105454
0.00107843
0.00110263
0.00112714
0.00115197
0.0011771
0.00120253
0.00122824
0.00125423
0.0012805
0.00130702
0.00133379
0.00136079
0.00138802
0.00141546
0.0014431
0.00147092
0.00149891
0.00152704
0.00155532
0.00158371
0.00161221
0.00164079
0.00166944
0.00169813
0.00172686
0.00175559
0.00178431
0.00181299
0.0018416
0.00187013
0.00189854
0.00192679
0.00195485
0.00198269
0.00201025
0.00203751
0.00206441
0.0020909
0.00211695
0.00214248
0.00216743
0.00219163
0.00221526
0.00223838
0.00226101
0.00228316
0.00230481
0.00232596
0.00234658
0.00236668
0.00238624
0.00240525
0.00242369
0.00244156
0.00245884
0.00247551
0.00249157
0.00250699
0.00252177
0.00253589
0.00254934
0.00256211
0.00257417
0.00258553
0.00259617
0.00260607
0.00261522
0.00262362
0.00263126
0.00263811
0.00264418
0.00264946
0.00265393
0.00265761
0.00266047
0.00266252
0.00266375
0.00266417
0.00266377
0.00266256
0.00266055
0.00265773
0.00265411
0.00264972
0.00264454
0.00263861
0.00263193
0.00262452
0.0026164
0.00260759
0.00259811
0.00258799
0.00257725
0.00256592
0.00255405
0.00254164
0.00252875
0.00251543
0.00250169
0.00248757
0.0024731
0.00245824
0.0024429
0.00242684
0.00240971
0.00239177
0.00237334
0.00235461
0.00233572
0.00231673
0.00229771
0.0022787
0.00225971
0.00224076
0.00222181
0.00220276
0.00218335
0.00216295
0.00213969
0.00210746
7.59064e-06
5.71189e-05
0.000113163
0.000155496
0.000185751
0.000207679
0.000224441
0.000238349
0.000250955
0.000263218
0.000275679
0.000288606
0.000302107
0.000316206
0.000330883
0.0003461
0.000361815
0.000377983
0.000394563
0.000411518
0.000428816
0.000446427
0.000464328
0.000482496
0.000500916
0.000519574
0.00053846
0.000557564
0.000576883
0.000596413
0.000616154
0.000636107
0.000656274
0.000676661
0.000697272
0.000718115
0.000739198
0.000760531
0.000782124
0.000803988
0.000826135
0.000848576
0.000871323
0.000894389
0.000917783
0.000941518
0.000965602
0.000990046
0.00101486
0.00104004
0.00106561
0.00109156
0.0011179
0.00114463
0.00117176
0.00119929
0.00122721
0.00125553
0.00128424
0.00131334
0.00134282
0.00137268
0.00140292
0.00143352
0.00146448
0.00149578
0.00152741
0.00155937
0.00159164
0.00162419
0.00165703
0.00169012
0.00172346
0.00175703
0.0017908
0.00182475
0.00185887
0.00189313
0.00192752
0.00196199
0.00199655
0.00203115
0.00206578
0.00210041
0.00213502
0.00216957
0.00220405
0.00223842
0.00227266
0.00230673
0.0023406
0.00237423
0.00240759
0.00244065
0.00247335
0.00250565
0.00253751
0.00256889
0.00259975
0.00263004
0.00265954
0.00268834
0.00271652
0.00274411
0.00277111
0.00279754
0.00282338
0.00284862
0.00287324
0.00289725
0.00292062
0.00294335
0.00296541
0.00298681
0.00300751
0.00302752
0.00304681
0.00306537
0.00308318
0.00310024
0.00311651
0.003132
0.00314668
0.00316054
0.00317357
0.00318575
0.00319708
0.00320753
0.00321709
0.00322575
0.0032335
0.00324034
0.00324624
0.0032512
0.00325522
0.00325829
0.00326039
0.00326154
0.00326173
0.00326096
0.00325922
0.00325653
0.00325289
0.0032483
0.00324278
0.00323634
0.00322899
0.00322075
0.00321163
0.00320167
0.00319087
0.00317928
0.00316692
0.00315381
0.00314
0.00312553
0.00311044
0.00309477
0.00307855
0.00306182
0.00304461
0.00302692
0.00300869
0.0029898
0.00297009
0.00294964
0.00292866
0.00290729
0.00288568
0.0028639
0.00284202
0.00282011
0.00279819
0.00277629
0.0027544
0.00273242
0.00271011
0.00268684
0.00266104
0.00262876
8.48478e-06
6.165e-05
0.000126496
0.000177639
0.000215397
0.000243523
0.00026539
0.000283537
0.000299732
0.000315129
0.000330428
0.000346017
0.000362091
0.000378724
0.000395929
0.000413684
0.000431954
0.000450698
0.000469877
0.000489454
0.000509397
0.000529677
0.000550271
0.000571158
0.000592323
0.000613754
0.00063544
0.000657378
0.000679561
0.000701991
0.000724667
0.000747594
0.000770775
0.000794217
0.000817927
0.000841916
0.000866192
0.000890765
0.000915649
0.000940853
0.000966391
0.000992274
0.00101851
0.00104512
0.00107211
0.00109948
0.00112726
0.00115544
0.00118404
0.00121306
0.00124251
0.00127239
0.00130271
0.00133347
0.00136467
0.00139631
0.00142839
0.00146091
0.00149386
0.00152724
0.00156105
0.00159527
0.00162989
0.00166491
0.00170031
0.00173609
0.00177222
0.00180869
0.00184548
0.00188259
0.00191997
0.00195763
0.00199552
0.00203364
0.00207195
0.00211044
0.00214907
0.00218781
0.00222665
0.00226555
0.00230449
0.00234342
0.00238234
0.00242119
0.00245997
0.00249863
0.00253714
0.00257547
0.0026136
0.0026515
0.00268911
0.00272643
0.0027634
0.00279999
0.00283616
0.00287187
0.00290709
0.00294176
0.00297584
0.00300929
0.00304192
0.00307385
0.00310512
0.00313575
0.00316576
0.00319513
0.00322386
0.00325194
0.00327935
0.0033061
0.00333216
0.00335752
0.00338218
0.00340612
0.00342931
0.00345176
0.00347345
0.00349435
0.00351446
0.00353376
0.00355223
0.00356986
0.00358664
0.00360254
0.00361755
0.00363167
0.00364487
0.00365713
0.00366844
0.0036788
0.00368817
0.00369656
0.00370395
0.00371033
0.00371568
0.00371999
0.00372327
0.00372549
0.00372667
0.00372679
0.00372584
0.00372383
0.00372077
0.00371665
0.00371149
0.00370528
0.00369805
0.0036898
0.00368056
0.00367033
0.00365916
0.00364705
0.00363404
0.00362016
0.00360546
0.00358997
0.00357373
0.00355678
0.00353917
0.00352093
0.00350209
0.00348266
0.00346265
0.00344199
0.00342061
0.00339856
0.00337594
0.00335289
0.00332951
0.0033059
0.00328213
0.00325826
0.00323437
0.00321048
0.00318661
0.0031627
0.00313855
0.00311364
0.00308677
0.0030555
9.25568e-06
6.44622e-05
0.000136459
0.000195633
0.000240594
0.000274828
0.000301788
0.00032417
0.000343916
0.000362344
0.000380303
0.000398302
0.000416625
0.000435412
0.000454718
0.000474549
0.000494885
0.000515697
0.00053695
0.000558612
0.000580653
0.000603046
0.000625769
0.000648805
0.000672137
0.000695757
0.000719655
0.000743827
0.000768272
0.000792989
0.000817981
0.000843253
0.00086881
0.000894659
0.00092081
0.000947271
0.000974054
0.00100117
0.00102863
0.00105644
0.00108463
0.00111319
0.00114214
0.00117149
0.00120126
0.00123145
0.00126206
0.00129312
0.00132463
0.00135658
0.001389
0.00142188
0.00145522
0.00148903
0.00152331
0.00155805
0.00159326
0.00162893
0.00166506
0.00170163
0.00173865
0.0017761
0.00181398
0.00185226
0.00189094
0.00193
0.00196943
0.0020092
0.00204931
0.00208971
0.00213041
0.00217136
0.00221255
0.00225395
0.00229552
0.00233725
0.0023791
0.00242105
0.00246305
0.00250507
0.0025471
0.00258908
0.00263098
0.00267278
0.00271444
0.00275593
0.00279721
0.00283825
0.00287902
0.00291949
0.00295962
0.0029994
0.00303877
0.00307771
0.00311618
0.00315416
0.00319159
0.00322843
0.00326466
0.00330018
0.00333492
0.00336896
0.00340233
0.00343506
0.00346713
0.00349855
0.0035293
0.00355939
0.00358879
0.0036175
0.00364551
0.00367281
0.00369938
0.00372521
0.00375028
0.0037746
0.00379813
0.00382087
0.0038428
0.00386391
0.00388417
0.00390357
0.00392211
0.00393976
0.00395651
0.00397234
0.00398723
0.00400117
0.00401414
0.00402613
0.00403711
0.00404708
0.00405602
0.00406392
0.00407074
0.0040765
0.00408116
0.00408474
0.00408721
0.00408856
0.00408878
0.00408787
0.00408585
0.00408269
0.00407839
0.00407297
0.00406644
0.0040588
0.00405005
0.00404022
0.00402934
0.00401743
0.00400451
0.00399062
0.00397579
0.00396006
0.00394347
0.00392605
0.00390785
0.00388891
0.00386927
0.00384894
0.00382795
0.00380628
0.00378393
0.00376091
0.0037373
0.00371319
0.00368869
0.00366389
0.00363886
0.00361368
0.00358844
0.0035632
0.00353798
0.00351278
0.00348746
0.00346162
0.00343438
0.00340422
9.9095e-06
6.60639e-05
0.000143657
0.00020989
0.000261539
0.000301623
0.000333545
0.000360086
0.000383311
0.000404671
0.000425142
0.000445348
0.000465663
0.000486297
0.000507356
0.000528881
0.000550875
0.000573325
0.000596208
0.000619496
0.000643165
0.000667192
0.000691556
0.000716243
0.000741239
0.000766534
0.000792123
0.000818002
0.00084417
0.000870628
0.00089738
0.00092443
0.000951786
0.000979455
0.00100745
0.00103577
0.00106443
0.00109345
0.00112283
0.00115259
0.00118274
0.00121328
0.00124424
0.00127561
0.00130742
0.00133966
0.00137235
0.0014055
0.00143911
0.00147319
0.00150774
0.00154276
0.00157827
0.00161425
0.00165072
0.00168766
0.00172508
0.00176297
0.00180132
0.00184013
0.0018794
0.0019191
0.00195923
0.00199978
0.00204073
0.00208206
0.00212377
0.00216582
0.00220819
0.00225088
0.00229384
0.00233706
0.00238051
0.00242415
0.00246797
0.00251192
0.00255598
0.00260011
0.00264428
0.00268844
0.00273257
0.00277663
0.00282057
0.00286437
0.00290798
0.00295138
0.00299452
0.00303737
0.00307991
0.00312209
0.00316389
0.00320528
0.00324623
0.00328671
0.0033267
0.00336614
0.00340503
0.00344331
0.00348095
0.00351784
0.00355401
0.00358952
0.00362437
0.00365857
0.00369213
0.00372503
0.00375728
0.00378885
0.00381974
0.00384995
0.00387945
0.00390824
0.00393631
0.00396364
0.00399023
0.00401606
0.00404111
0.00406538
0.00408884
0.00411149
0.0041333
0.00415427
0.00417437
0.00419359
0.00421193
0.00422935
0.00424586
0.00426141
0.00427599
0.0042896
0.0043022
0.00431379
0.00432436
0.00433387
0.0043423
0.00434965
0.00435589
0.00436101
0.00436503
0.00436787
0.00436955
0.00437006
0.00436942
0.00436759
0.00436455
0.00436032
0.00435491
0.00434832
0.00434056
0.00433164
0.00432159
0.00431041
0.00429815
0.00428481
0.00427044
0.00425506
0.00423871
0.00422144
0.00420327
0.00418425
0.00416442
0.00414381
0.00412244
0.00410035
0.00407753
0.00405401
0.00402987
0.00400517
0.00398
0.00395445
0.00392861
0.00390257
0.00387641
0.00385022
0.00382408
0.00379799
0.00377188
0.00374548
0.00371812
0.00368885
1.04609e-05
6.67484e-05
0.000148535
0.000220794
0.000278496
0.000324049
0.000360705
0.000391256
0.000417842
0.000442017
0.000464861
0.000487097
0.000509187
0.000531411
0.000553929
0.000576822
0.000600123
0.000623838
0.000647958
0.000672466
0.000697344
0.000722572
0.000748137
0.000774023
0.000800219
0.00082672
0.000853518
0.000880613
0.000908003
0.00093569
0.00096368
0.000991976
0.00102059
0.00104952
0.00107878
0.00110838
0.00113833
0.00116865
0.00119933
0.0012304
0.00126187
0.00129373
0.00132602
0.00135872
0.00139186
0.00142545
0.00145948
0.00149398
0.00152894
0.00156437
0.00160027
0.00163665
0.00167351
0.00171085
0.00174868
0.00178698
0.00182576
0.00186501
0.00190473
0.00194491
0.00198554
0.00202662
0.00206812
0.00211005
0.00215238
0.0021951
0.00223819
0.00228164
0.00232541
0.0023695
0.00241387
0.0024585
0.00250336
0.00254843
0.00259366
0.00263903
0.00268451
0.00273005
0.00277562
0.00282118
0.00286669
0.00291211
0.00295741
0.00300253
0.00304745
0.00309211
0.00313649
0.00318056
0.00322427
0.00326759
0.0033105
0.00335296
0.00339496
0.00343646
0.00347744
0.00351786
0.00355771
0.00359695
0.00363552
0.0036734
0.00371063
0.00374722
0.00378318
0.00381852
0.00385323
0.0038873
0.00392073
0.0039535
0.0039856
0.00401703
0.00404777
0.00407781
0.00410715
0.00413577
0.00416366
0.0041908
0.0042172
0.00424282
0.00426767
0.00429171
0.00431494
0.00433734
0.00435891
0.00437962
0.00439947
0.00441844
0.00443651
0.00445365
0.00446985
0.00448508
0.00449934
0.0045126
0.00452486
0.00453609
0.00454624
0.0045553
0.00456326
0.00457012
0.00457587
0.00458042
0.00458379
0.00458596
0.00458694
0.00458671
0.00458524
0.00458255
0.00457862
0.00457347
0.00456708
0.00455948
0.00455067
0.00454067
0.00452949
0.00451716
0.0045037
0.00448914
0.00447351
0.00445685
0.0044392
0.00442058
0.00440105
0.00438063
0.00435936
0.00433728
0.00431441
0.00429078
0.00426646
0.00424152
0.00421602
0.00419006
0.00416374
0.00413714
0.00411038
0.00408355
0.00405674
0.00403002
0.00400334
0.00397654
0.0039491
0.00392038
1.09229e-05
6.67282e-05
0.000151469
0.00022872
0.000291765
0.000342322
0.000383403
0.000417749
0.000447532
0.000474374
0.00049944
0.000523536
0.000547202
0.000570784
0.000594498
0.000618467
0.000642756
0.000667395
0.000692391
0.000717741
0.000743434
0.000769458
0.000795802
0.000822456
0.00084941
0.00087666
0.000904202
0.000932033
0.000960155
0.00098857
0.00101728
0.0010463
0.00107562
0.00110526
0.00113523
0.00116554
0.00119619
0.00122719
0.00125856
0.00129031
0.00132244
0.00135498
0.00138791
0.00142127
0.00145505
0.00148927
0.00152393
0.00155903
0.0015946
0.00163062
0.00166711
0.00170408
0.00174151
0.00177942
0.00181781
0.00185667
0.001896
0.00193581
0.00197608
0.00201682
0.00205801
0.00209966
0.00214174
0.00218424
0.00222717
0.00227049
0.0023142
0.00235828
0.00240271
0.00244747
0.00249253
0.00253787
0.00258346
0.00262928
0.00267529
0.00272145
0.00276774
0.00281411
0.00286053
0.00290695
0.00295333
0.00299963
0.0030458
0.00309181
0.0031376
0.00318313
0.00322837
0.00327327
0.00331779
0.00336192
0.0034056
0.00344882
0.00349155
0.00353377
0.00357545
0.00361657
0.0036571
0.00369702
0.00373631
0.003775
0.00381308
0.00385058
0.00388749
0.0039238
0.00395951
0.0039946
0.00402907
0.00406291
0.00409609
0.00412862
0.00416048
0.00419167
0.00422217
0.00425197
0.00428106
0.00430944
0.00433709
0.00436399
0.00439014
0.00441551
0.0044401
0.00446388
0.00448687
0.00450903
0.00453036
0.00455086
0.00457049
0.00458923
0.00460704
0.00462393
0.00463988
0.00465486
0.00466889
0.00468192
0.00469387
0.00470477
0.00471458
0.00472328
0.00473087
0.0047373
0.00474256
0.00474661
0.00474946
0.00475108
0.00475146
0.00475058
0.00474844
0.00474503
0.00474034
0.00473439
0.00472717
0.0047187
0.00470897
0.00469802
0.00468586
0.0046725
0.00465799
0.00464234
0.00462559
0.00460777
0.00458893
0.0045691
0.00454831
0.00452662
0.00450404
0.00448063
0.00445645
0.00443154
0.004406
0.00437991
0.00435337
0.00432647
0.00429934
0.00427209
0.00424482
0.00421763
0.00419052
0.00416338
0.0041358
0.00410733
1.1306e-05
6.61714e-05
0.000152791
0.00023403
0.00030167
0.000356701
0.000401831
0.000439696
0.00047246
0.000501784
0.000528894
0.000554663
0.0005797
0.000604412
0.000629066
0.000653828
0.000678797
0.000704028
0.000729548
0.000755367
0.000781486
0.000807899
0.000834601
0.000861585
0.000888847
0.000916381
0.000944186
0.000972262
0.00100061
0.00102923
0.00105813
0.00108732
0.0011168
0.00114657
0.00117665
0.00120705
0.00123778
0.00126884
0.00130025
0.00133202
0.00136415
0.00139666
0.00142955
0.00146284
0.00149654
0.00153065
0.00156519
0.00160016
0.00163556
0.00167141
0.00170772
0.00174448
0.00178171
0.0018194
0.00185756
0.0018962
0.00193531
0.00197489
0.00201495
0.00205548
0.00209649
0.00213795
0.00217987
0.00222225
0.00226507
0.00230832
0.00235199
0.00239606
0.00244052
0.00248535
0.00253052
0.00257603
0.00262183
0.00266789
0.0027142
0.00276071
0.00280739
0.00285419
0.00290108
0.00294802
0.00299495
0.00304183
0.00308861
0.00313524
0.00318168
0.00322787
0.00327376
0.00331932
0.0033645
0.00340927
0.00345358
0.00349742
0.00354074
0.00358355
0.0036258
0.00366748
0.00370857
0.00374909
0.00378908
0.00382854
0.00386745
0.00390583
0.00394365
0.00398091
0.00401759
0.00405368
0.00408917
0.00412404
0.00415829
0.0041919
0.00422485
0.00425715
0.00428879
0.00431974
0.00435001
0.00437959
0.00440847
0.00443663
0.00446406
0.00449073
0.00451666
0.00454181
0.00456619
0.00458979
0.0046126
0.00463462
0.00465583
0.00467617
0.00469563
0.0047142
0.00473187
0.00474862
0.00476444
0.00477928
0.00479312
0.00480594
0.0048177
0.00482839
0.00483798
0.00484644
0.00485375
0.00485987
0.0048648
0.00486849
0.00487094
0.00487212
0.00487202
0.00487063
0.00486793
0.00486392
0.00485859
0.00485195
0.004844
0.00483475
0.0048242
0.00481239
0.00479932
0.00478503
0.00476953
0.00475286
0.00473506
0.00471616
0.00469619
0.00467521
0.00465324
0.00463035
0.00460657
0.00458198
0.00455665
0.00453068
0.00450415
0.00447718
0.00444989
0.0044224
0.00439484
0.00436732
0.00433986
0.00431241
0.00428464
0.00425618
1.16198e-05
6.52153e-05
0.000152798
0.000237076
0.000308542
0.000367465
0.000416205
0.00045725
0.000492719
0.000524286
0.000553216
0.000580436
0.00060661
0.000632199
0.000657518
0.000682773
0.000708096
0.000733569
0.000759239
0.000785132
0.00081126
0.000837627
0.000864233
0.000891076
0.000918155
0.000945468
0.000973014
0.00100079
0.00102881
0.00105707
0.00108557
0.00111432
0.00114332
0.00117259
0.00120214