/*--------------------------------*- C++ -*----------------------------------*\
| =========                 |                                                 |
| \\      /  F ield         | OpenFOAM: The Open Source CFD Toolbox           |
|  \\    /   O peration     | Version:  2.2.x                                 |
|   \\  /    A nd           | Web:      www.OpenFOAM.org                      |
|    \\/     M anipulation  |                                                 |
\*---------------------------------------------------------------------------*/
FoamFile
{
    version     2.0;
    format      ascii;
    class       volScalarField;
    location    "750";
    object      p;
}
// * * * * * * * * * * * * * * * * * * * * * * * * * * * * * * * * * * * * * //

dimensions      [0 2 -2 0 0 0 0];

internalField   nonuniform List<scalar> 
12225
(
-1.63666
-4.34148
-5.1894
-5.42901
-5.59313
-5.73442
-5.84836
-5.94297
-6.02672
-6.10386
-6.17636
-6.24546
-6.31216
-6.37716
-6.44081
-6.50226
-6.55822
-6.5248
-5.42515
-5.78003
-5.89107
-5.84575
-5.85274
-5.90169
-5.96016
-6.0199
-6.08079
-6.14249
-6.20431
-6.26586
-6.32711
-6.38814
-6.44903
-6.50988
-6.57535
-6.69005
-5.27225
-5.11726
-5.31925
-5.45398
-5.57741
-5.70311
-5.81578
-5.9139
-6.00198
-6.08314
-6.15905
-6.23093
-6.29983
-6.36664
-6.43224
-6.49806
-6.56929
-6.66491
-5.18778
-5.17672
-5.44945
-5.61783
-5.72971
-5.83085
-5.92036
-5.99876
-6.07035
-6.13799
-6.20295
-6.26599
-6.32775
-6.38884
-6.45
-6.51271
-6.5808
-6.66335
-5.22411
-5.27318
-5.48564
-5.62233
-5.71512
-5.80441
-5.88932
-5.96745
-6.04069
-6.11072
-6.17826
-6.24378
-6.3078
-6.37084
-6.43367
-6.49751
-6.56464
-6.6377
-5.29814
-5.34862
-5.50921
-5.63288
-5.72583
-5.81487
-5.89985
-5.97832
-6.05155
-6.12111
-6.18784
-6.25232
-6.3151
-6.37675
-6.43794
-6.49955
-6.56266
-6.6273
-5.36356
-5.40562
-5.53272
-5.64667
-5.73795
-5.8237
-5.90542
-5.98154
-6.05297
-6.12099
-6.18638
-6.24965
-6.31127
-6.3717
-6.43137
-6.49075
-6.55011
-6.60819
-5.41486
-5.45162
-5.55818
-5.66232
-5.74992
-5.83217
-5.91095
-5.98514
-6.05523
-6.12218
-6.18661
-6.24896
-6.30958
-6.36883
-6.42698
-6.48422
-6.54048
-6.5942
-5.45835
-5.49141
-5.58222
-5.67712
-5.76071
-5.83971
-5.91582
-5.98814
-6.05686
-6.12267
-6.18606
-6.24738
-6.30691
-6.3649
-6.4215
-6.47672
-6.53031
-6.58071
-5.50358
-5.53291
-5.60918
-5.69434
-5.77316
-5.84848
-5.92154
-5.99162
-6.05863
-6.123
-6.18508
-6.24511
-6.3033
-6.35977
-6.41458
-6.4676
-6.5185
-6.56592
-5.54975
-5.57523
-5.63876
-5.71413
-5.78742
-5.85857
-5.92817
-5.99559
-6.06052
-6.12312
-6.18357
-6.24203
-6.29859
-6.35328
-6.40607
-6.45675
-6.50499
-6.5497
-5.59587
-5.61763
-5.67035
-5.73623
-5.80341
-5.86994
-5.93573
-6.00009
-6.06256
-6.12304
-6.18155
-6.23814
-6.29279
-6.34546
-6.39604
-6.44433
-6.49002
-6.5323
-5.64081
-5.65916
-5.7029
-5.75996
-5.82073
-5.88234
-5.94401
-6.00499
-6.06464
-6.12266
-6.17894
-6.23337
-6.28586
-6.33632
-6.38459
-6.43049
-6.47378
-6.51387
-5.68314
-5.69853
-5.73499
-5.78421
-5.83865
-5.89519
-5.9526
-6.00994
-6.0665
-6.1218
-6.17557
-6.22762
-6.27778
-6.32591
-6.37185
-6.41544
-6.45651
-6.49464
-5.72106
-5.73402
-5.76473
-5.80729
-5.85588
-5.9075
-5.96066
-6.01433
-6.06765
-6.12007
-6.17119
-6.22074
-6.26849
-6.31428
-6.35795
-6.39937
-6.43843
-6.47481
-5.7522
-5.76329
-5.78965
-5.82693
-5.87051
-5.9177
-5.96696
-6.01712
-6.06732
-6.1169
-6.16539
-6.21247
-6.25788
-6.30143
-6.34298
-6.38243
-6.41969
-6.45454
-5.77329
-5.78308
-5.80645
-5.83997
-5.87979
-5.92351
-5.96956
-6.0168
-6.0643
-6.11137
-6.15752
-6.20239
-6.24571
-6.2873
-6.32703
-6.36481
-6.40058
-6.43417
-5.77922
-5.7884
-5.81038
-5.84212
-5.88007
-5.92194
-5.9662
-6.01168
-6.05747
-6.1029
-6.14746
-6.19078
-6.23262
-6.27279
-6.31119
-6.34773
-6.38238
-6.415
-5.76963
-5.77883
-5.80098
-5.83298
-5.87114
-5.91304
-5.95713
-6.00229
-6.04766
-6.09255
-6.13649
-6.17915
-6.22029
-6.25977
-6.29749
-6.3334
-6.36749
-6.39961
-5.74887
-5.7585
-5.782
-5.81596
-5.85601
-5.89938
-5.94456
-5.9905
-6.03637
-6.08154
-6.12558
-6.16819
-6.20919
-6.24844
-6.28589
-6.32149
-6.35525
-6.38704
-5.72015
-5.73034
-5.75622
-5.79376
-5.83712
-5.88305
-5.93021
-5.97773
-6.0248
-6.07086
-6.11554
-6.1586
-6.19991
-6.23936
-6.27693
-6.3126
-6.3464
-6.37823
-5.68583
-5.69618
-5.72554
-5.76844
-5.81625
-5.86537
-5.91503
-5.96456
-6.01317
-6.06034
-6.10584
-6.14949
-6.1912
-6.23091
-6.26862
-6.30431
-6.33803
-6.36964
-5.64795
-5.65702
-5.69136
-5.74196
-5.79526
-5.84801
-5.90064
-5.95262
-6.00312
-6.05179
-6.09847
-6.14308
-6.18556
-6.22588
-6.26406
-6.30012
-6.33411
-6.36601
-5.60843
-5.61312
-5.65451
-5.71487
-5.77369
-5.82998
-5.88556
-5.9397
-5.99165
-6.04131
-6.08872
-6.13389
-6.17681
-6.21748
-6.2559
-6.29209
-6.32603
-6.35747
-5.56851
-5.56478
-5.62014
-5.69253
-5.75583
-5.81598
-5.87581
-5.93346
-5.988
-6.03963
-6.08857
-6.13489
-6.17868
-6.21998
-6.25886
-6.29535
-6.32948
-6.36123
-5.52558
-5.49627
-5.58163
-5.66964
-5.73201
-5.79046
-5.84991
-5.90744
-5.96216
-6.0144
-6.0643
-6.11182
-6.15692
-6.19962
-6.23992
-6.27776
-6.31294
-6.34475
-5.51955
-5.40468
-5.54413
-5.6744
-5.75706
-5.82757
-5.89277
-5.95136
-6.00469
-6.05441
-6.10129
-6.14564
-6.18764
-6.22745
-6.26515
-6.30076
-6.33413
-6.36493
-5.61691
-5.28566
-5.36113
-5.46296
-5.55388
-5.64922
-5.73988
-5.82102
-5.89403
-5.96072
-6.02204
-6.07857
-6.13085
-6.17936
-6.22451
-6.26659
-6.30556
-6.34073
-5.91569
-5.9807
-6.01305
-5.9393
-5.90531
-5.91693
-5.9456
-5.97996
-6.0179
-6.05817
-6.09935
-6.14038
-6.18066
-6.21984
-6.25778
-6.29449
-6.33006
-6.36565
-2.22136
-4.4151
-5.21273
-5.43225
-5.56623
-5.68496
-5.78214
-5.86182
-5.93098
-5.99335
-6.05046
-6.10315
-6.15208
-6.19778
-6.24072
-6.28145
-6.32068
-6.36321
-7.19403
-7.19416
-7.19482
-7.19578
-7.19681
-7.19786
-7.19896
-7.2003
-7.20199
-7.20407
-7.20656
-7.20953
-7.21304
-7.21713
-7.22183
-7.22719
-7.23322
-7.23993
-7.24734
-7.25546
-7.26426
-7.27377
-7.28395
-7.29481
-7.30633
-7.3185
-7.33131
-7.34474
-7.35878
-7.37343
-7.38867
-7.40449
-7.42088
-7.43784
-7.45536
-7.47343
-7.49206
-7.51122
-7.53092
-7.55116
-7.57194
-7.59327
-7.61514
-7.63745
-7.66016
-7.68327
-7.70676
-7.73063
-7.75485
-7.77939
-7.80422
-7.8293
-7.8546
-7.88007
-7.90566
-7.9313
-7.95695
-7.98253
-8.00797
-8.0332
-8.05812
-8.08264
-8.10668
-8.13012
-8.15285
-8.17477
-8.19574
-8.21564
-8.23433
-8.25167
-8.26749
-8.28165
-8.29398
-8.3043
-8.31243
-8.31818
-8.32135
-8.32173
-8.31911
-8.31327
-8.30397
-8.29097
-8.27403
-8.25289
-8.22729
-8.19696
-8.16163
-8.12103
-8.07487
-8.02288
-7.96477
-7.90029
-7.82917
-7.75114
-7.66596
-7.57341
-7.47326
-7.36534
-7.24946
-7.12548
-6.99322
-6.8525
-6.70323
-6.54538
-6.37898
-6.20405
-6.02064
-5.82881
-5.62866
-5.42029
-5.20385
-4.97949
-4.74738
-4.50775
-4.26081
-4.00683
-3.74608
-3.47887
-3.20552
-2.92638
-2.64182
-2.35225
-2.05806
-1.75968
-1.45756
-1.15215
-0.843916
-0.533333
-0.220888
0.0929282
0.407625
0.722714
1.03771
1.35214
1.66553
1.97741
2.28734
2.59488
2.89964
3.20121
3.49923
3.79334
4.08323
4.36861
4.64922
4.9248
5.19515
5.46011
5.71951
5.97322
6.22118
6.4633
6.69953
6.9299
7.15437
7.37301
7.58587
7.79298
7.99451
8.19047
8.38109
8.56656
8.7466
8.92173
9.09262
9.2586
9.41931
9.57529
9.72682
9.87411
10.0173
10.1566
10.2921
10.424
10.5525
10.6779
10.801
10.9225
11.0503
11.1759
-7.19222
-7.19269
-7.19339
-7.19417
-7.1949
-7.1955
-7.1961
-7.19689
-7.19803
-7.1996
-7.20164
-7.2042
-7.20733
-7.21105
-7.21541
-7.22043
-7.22612
-7.23252
-7.23961
-7.2474
-7.25589
-7.26507
-7.27493
-7.28546
-7.29665
-7.30849
-7.32095
-7.33404
-7.34773
-7.36203
-7.37691
-7.39236
-7.40839
-7.42499
-7.44214
-7.45984
-7.47808
-7.49687
-7.51619
-7.53604
-7.55642
-7.57731
-7.5987
-7.62055
-7.64283
-7.66553
-7.68862
-7.7121
-7.73593
-7.76008
-7.78454
-7.80926
-7.83419
-7.85931
-7.88455
-7.90986
-7.93518
-7.96045
-7.9856
-8.01054
-8.03519
-8.05947
-8.08328
-8.10652
-8.12908
-8.15084
-8.17169
-8.19149
-8.21012
-8.22742
-8.24325
-8.25745
-8.26987
-8.28032
-8.28862
-8.2946
-8.29805
-8.29876
-8.29654
-8.29115
-8.28238
-8.26997
-8.25369
-8.23329
-8.20851
-8.17907
-8.14472
-8.10518
-8.06016
-8.0094
-7.95262
-7.88954
-7.8199
-7.74343
-7.6599
-7.56906
-7.47071
-7.36465
-7.25072
-7.12876
-6.99855
-6.85986
-6.71261
-6.55682
-6.3925
-6.21967
-6.03838
-5.84868
-5.65066
-5.44443
-5.23012
-5.00788
-4.77788
-4.54033
-4.29546
-4.0435
-3.78474
-3.51946
-3.248
-2.97069
-2.6879
-2.40001
-2.10743
-1.81059
-1.50991
-1.20584
-0.898858
-0.58942
-0.278014
0.034874
0.348757
0.663149
0.977566
1.29153
1.60458
1.91624
2.22606
2.53362
2.8385
3.14032
3.43869
3.73326
4.02371
4.30975
4.5911
4.86751
5.13878
5.40472
5.66517
5.92
6.16911
6.41244
6.64991
6.88155
7.10731
7.32724
7.54144
7.74984
7.95271
8.14998
8.34193
8.5289
8.71039
8.8867
9.05831
9.22481
9.3861
9.54267
9.69477
9.84258
9.9863
10.1261
10.2621
10.3946
10.5238
10.6501
10.7747
10.8979
11.0301
11.1526
-7.18759
-7.18888
-7.19053
-7.19177
-7.19245
-7.19285
-7.19328
-7.19394
-7.19498
-7.19646
-7.19845
-7.20096
-7.20405
-7.20773
-7.21204
-7.21698
-7.22257
-7.22882
-7.23574
-7.24333
-7.25159
-7.2605
-7.27006
-7.28027
-7.29111
-7.30257
-7.31464
-7.32732
-7.34058
-7.35443
-7.36885
-7.38384
-7.39939
-7.4155
-7.43215
-7.44935
-7.46708
-7.48535
-7.50415
-7.52347
-7.5433
-7.56364
-7.58447
-7.60576
-7.62749
-7.64965
-7.67222
-7.69518
-7.71849
-7.74215
-7.7661
-7.79032
-7.81478
-7.83941
-7.86419
-7.88904
-7.91392
-7.93876
-7.96348
-7.98802
-8.01229
-8.0362
-8.05967
-8.08258
-8.10485
-8.12634
-8.14695
-8.16654
-8.18499
-8.20215
-8.21789
-8.23204
-8.24444
-8.25493
-8.26333
-8.26946
-8.27312
-8.27412
-8.27224
-8.26727
-8.25899
-8.24716
-8.23155
-8.2119
-8.18796
-8.15946
-8.12615
-8.08774
-8.04396
-7.99454
-7.9392
-7.87767
-7.80967
-7.73495
-7.65325
-7.56435
-7.46802
-7.36406
-7.25233
-7.13265
-7.0047
-6.86826
-6.72334
-6.56991
-6.40799
-6.23759
-6.05874
-5.87152
-5.676
-5.47228
-5.26048
-5.04075
-4.81327
-4.57822
-4.33582
-4.08631
-3.82997
-3.56708
-3.29795
-3.02291
-2.74234
-2.4566
-2.1661
-1.87125
-1.57248
-1.27023
-0.96496
-0.657132
-0.347224
-0.0357183
0.276901
0.590149
0.903548
1.21662
1.52891
1.83994
2.14926
2.45645
2.76109
3.06279
3.36117
3.65587
3.94657
4.23297
4.51479
4.79177
5.06369
5.33039
5.59168
5.8474
6.0975
6.34186
6.5804
6.81317
7.04006
7.26116
7.47661
7.68616
7.89033
8.08901
8.28218
8.47023
8.65279
8.83019
9.00303
9.17094
9.3337
9.4917
9.64514
9.7942
9.93909
10.08
10.2171
10.3507
10.4812
10.6089
10.7355
10.8602
10.9963
11.1087
-7.18136
-7.18353
-7.18643
-7.18856
-7.18984
-7.19072
-7.19154
-7.19251
-7.19379
-7.19546
-7.19761
-7.20026
-7.20346
-7.20722
-7.21158
-7.21654
-7.22211
-7.22832
-7.23515
-7.24261
-7.2507
-7.25941
-7.26875
-7.27869
-7.28925
-7.3004
-7.31214
-7.32447
-7.33737
-7.35084
-7.36488
-7.37947
-7.39461
-7.4103
-7.42654
-7.44331
-7.46061
-7.47845
-7.49681
-7.51568
-7.53507
-7.55496
-7.57533
-7.59618
-7.61748
-7.63921
-7.66137
-7.68392
-7.70684
-7.73011
-7.75369
-7.77755
-7.80165
-7.82594
-7.85038
-7.87492
-7.89949
-7.92403
-7.94848
-7.97276
-7.99678
-8.02046
-8.04372
-8.06644
-8.08854
-8.10989
-8.13038
-8.14988
-8.16827
-8.18541
-8.20115
-8.21534
-8.22783
-8.23844
-8.24702
-8.25336
-8.2573
-8.25862
-8.25713
-8.25261
-8.24484
-8.23359
-8.21862
-8.1997
-8.17655
-8.14894
-8.11658
-8.0792
-8.03654
-7.98831
-7.93424
-7.87404
-7.80746
-7.73422
-7.65408
-7.56679
-7.47212
-7.3699
-7.25997
-7.14206
-7.01582
-6.88112
-6.73796
-6.58634
-6.42624
-6.25769
-6.08072
-5.89538
-5.70175
-5.49992
-5.29002
-5.07219
-4.84659
-4.61341
-4.37286
-4.12519
-3.87064
-3.6095
-3.34209
-3.06873
-2.78978
-2.5056
-2.21661
-1.92319
-1.62579
-1.32484
-1.02078
-0.714084
-0.405222
-0.0946727
0.21708
0.529554
0.842273
1.15477
1.46657
1.77721
2.08625
2.39324
2.69778
2.99948
3.29795
3.59283
3.88378
4.17053
4.45278
4.73024
5.00273
5.27007
5.53204
5.78848
6.03937
6.28455
6.52391
6.75761
6.98539
7.20742
7.42399
7.63466
7.83982
8.03948
8.23361
8.42255
8.60606
8.78438
8.95804
9.12678
9.29047
9.44939
9.60369
9.75358
9.89925
10.0409
10.1788
10.3131
10.4443
10.5728
10.7003
10.8247
10.9607
11.0611
-7.1754
-7.17829
-7.18246
-7.18571
-7.18784
-7.18942
-7.19083
-7.19232
-7.19403
-7.1961
-7.19858
-7.20154
-7.205
-7.209
-7.21354
-7.21865
-7.22433
-7.23059
-7.23744
-7.24488
-7.2529
-7.26151
-7.27071
-7.28048
-7.29083
-7.30175
-7.31324
-7.32529
-7.3379
-7.35107
-7.36478
-7.37904
-7.39385
-7.40919
-7.42508
-7.4415
-7.45845
-7.47593
-7.49393
-7.51245
-7.53149
-7.55102
-7.57105
-7.59156
-7.61253
-7.63395
-7.6558
-7.67806
-7.70071
-7.7237
-7.74703
-7.77064
-7.7945
-7.81858
-7.84281
-7.86714
-7.89153
-7.9159
-7.94019
-7.96432
-7.98822
-8.01179
-8.03495
-8.0576
-8.07964
-8.10095
-8.12143
-8.14094
-8.15936
-8.17656
-8.19238
-8.20669
-8.21933
-8.23013
-8.23893
-8.24553
-8.24977
-8.25144
-8.25034
-8.24626
-8.23899
-8.22829
-8.21393
-8.19566
-8.17323
-8.14639
-8.11486
-8.07837
-8.03665
-7.98942
-7.93639
-7.87729
-7.81184
-7.73977
-7.66083
-7.57478
-7.48138
-7.38046
-7.27185
-7.15514
-7.03001
-6.8965
-6.75455
-6.60415
-6.4453
-6.278
-6.10228
-5.91821
-5.72585
-5.5253
-5.31666
-5.10009
-4.87573
-4.64378
-4.40445
-4.15796
-3.90458
-3.64457
-3.37825
-3.10595
-2.82802
-2.54482
-2.25676
-1.96422
-1.66765
-1.36747
-1.06413
-0.758091
-0.449824
-0.139808
0.171473
0.483537
0.795913
1.10814
1.41973
1.73024
2.03919
2.34616
2.65075
2.95257
3.25121
3.5463
3.83754
4.12463
4.40727
4.68514
4.95809
5.22597
5.48846
5.74544
5.99698
6.24282
6.48277
6.71726
6.94596
7.1688
7.38607
7.5975
7.80336
8.00369
8.1985
8.38802
8.57214
8.75105
8.9251
9.09421
9.25833
9.41767
9.57239
9.72268
9.86873
10.0108
10.149
10.2836
10.4151
10.5437
10.6711
10.794
10.9281
11.0173
-7.1712
-7.17465
-7.1798
-7.18409
-7.18711
-7.18944
-7.1915
-7.19356
-7.19578
-7.1983
-7.20119
-7.2045
-7.20828
-7.21255
-7.21732
-7.22262
-7.22845
-7.23481
-7.24172
-7.24917
-7.25717
-7.26572
-7.27482
-7.28447
-7.29467
-7.30541
-7.3167
-7.32853
-7.3409
-7.35381
-7.36726
-7.38125
-7.39578
-7.41084
-7.42644
-7.44258
-7.45924
-7.47644
-7.49416
-7.51241
-7.53117
-7.55044
-7.57022
-7.59048
-7.61122
-7.63242
-7.65406
-7.67612
-7.69857
-7.7214
-7.74456
-7.76802
-7.79175
-7.8157
-7.83982
-7.86406
-7.88837
-7.91267
-7.9369
-7.96098
-7.98485
-8.00841
-8.03157
-8.05423
-8.0763
-8.09766
-8.1182
-8.1378
-8.15632
-8.17365
-8.18963
-8.20411
-8.21695
-8.22798
-8.23704
-8.24394
-8.2485
-8.25054
-8.24984
-8.24621
-8.23941
-8.22924
-8.21545
-8.19779
-8.17602
-8.14988
-8.11909
-8.08339
-8.04248
-7.9961
-7.94395
-7.88575
-7.82122
-7.7501
-7.67211
-7.587
-7.49456
-7.39461
-7.28693
-7.17098
-7.04656
-6.9138
-6.77264
-6.62304
-6.46499
-6.29851
-6.12362
-5.94037
-5.74884
-5.5491
-5.34128
-5.12551
-4.90195
-4.67078
-4.43221
-4.18646
-3.93379
-3.67448
-3.40883
-3.13716
-2.85983
-2.57721
-2.28968
-1.99766
-1.70156
-1.40181
-1.09886
-0.793159
-0.485194
-0.175441
0.135616
0.447495
0.759731
1.07187
1.38342
1.69391
2.00289
2.30992
2.61462
2.91661
3.21544
3.51073
3.80219
4.0896
4.37256
4.6507
4.924
5.19235
5.45524
5.71257
5.96468
6.21119
6.45175
6.68674
6.91594
7.1393
7.35702
7.56894
7.77525
7.976
8.17122
8.36108
8.54556
8.72479
8.89904
9.06831
9.23262
9.39216
9.54708
9.69756
9.84379
9.98596
10.1243
10.259
10.3905
10.5188
10.6456
10.7665
10.8984
10.9774
-7.1698
-7.17353
-7.17927
-7.18433
-7.1881
-7.19109
-7.19376
-7.19635
-7.19906
-7.202
-7.20528
-7.20894
-7.21302
-7.21755
-7.22255
-7.22803
-7.234
-7.24047
-7.24744
-7.25493
-7.26293
-7.27144
-7.28048
-7.29003
-7.30011
-7.31071
-7.32183
-7.33348
-7.34566
-7.35837
-7.37161
-7.38538
-7.39968
-7.41452
-7.4299
-7.44581
-7.46225
-7.47923
-7.49675
-7.51479
-7.53336
-7.55245
-7.57205
-7.59214
-7.61273
-7.63379
-7.6553
-7.67724
-7.6996
-7.72233
-7.74542
-7.76882
-7.7925
-7.81641
-7.8405
-7.86473
-7.88903
-7.91335
-7.9376
-7.96172
-7.98564
-8.00925
-8.03249
-8.05524
-8.0774
-8.09888
-8.11955
-8.13929
-8.15797
-8.17547
-8.19164
-8.20635
-8.21942
-8.23071
-8.24005
-8.24726
-8.25217
-8.25457
-8.25427
-8.25107
-8.24474
-8.23507
-8.22181
-8.20472
-8.18356
-8.15804
-8.12792
-8.0929
-8.05271
-8.00705
-7.95564
-7.89819
-7.83441
-7.76402
-7.68677
-7.60239
-7.51067
-7.41143
-7.30426
-7.18867
-7.06466
-6.93234
-6.79164
-6.64251
-6.48494
-6.31894
-6.14454
-5.96178
-5.77072
-5.57147
-5.36412
-5.14882
-4.92571
-4.69498
-4.45684
-4.21151
-3.95923
-3.70029
-3.43499
-3.16365
-2.88663
-2.60429
-2.31703
-2.02525
-1.72936
-1.4298
-1.12701
-0.821433
-0.51357
-0.203897
0.107102
0.418941
0.731165
1.04333
1.35494
1.66551
1.97457
2.28167
2.58651
2.88869
3.18769
3.48311
3.77474
4.06243
4.34567
4.62397
4.89753
5.16631
5.42965
5.68742
5.93983
6.18663
6.42757
6.66285
6.89234
7.11601
7.33399
7.54619
7.75274
7.95371
8.14914
8.33916
8.5238
8.70317
8.87749
9.04681
9.21118
9.37079
9.52578
9.67632
9.82259
9.96478
10.1031
10.2377
10.369
10.4967
10.6226
10.7413
10.8712
10.9409
-7.17126
-7.17505
-7.18102
-7.18657
-7.19089
-7.19442
-7.19758
-7.20062
-7.20374
-7.20705
-7.21064
-7.21459
-7.21892
-7.22366
-7.22884
-7.23447
-7.24056
-7.24711
-7.25414
-7.26165
-7.26964
-7.27812
-7.2871
-7.29657
-7.30655
-7.31703
-7.32803
-7.33953
-7.35156
-7.3641
-7.37718
-7.39078
-7.40491
-7.41958
-7.43479
-7.45053
-7.46682
-7.48365
-7.50102
-7.51893
-7.53738
-7.55635
-7.57585
-7.59585
-7.61636
-7.63735
-7.65881
-7.68072
-7.70304
-7.72577
-7.74885
-7.77227
-7.79597
-7.81992
-7.84406
-7.86835
-7.89272
-7.91711
-7.94146
-7.96568
-7.98971
-8.01344
-8.03681
-8.0597
-8.08201
-8.10365
-8.12449
-8.14441
-8.16329
-8.181
-8.19739
-8.21233
-8.22566
-8.23723
-8.24686
-8.25438
-8.25962
-8.26238
-8.26247
-8.25968
-8.25379
-8.24458
-8.23182
-8.21525
-8.19462
-8.16968
-8.14014
-8.10572
-8.06614
-8.0211
-7.97031
-7.91346
-7.85028
-7.78047
-7.70376
-7.6199
-7.5287
-7.42993
-7.32289
-7.20731
-7.08348
-6.95135
-6.81084
-6.66192
-6.50457
-6.3388
-6.16462
-5.98208
-5.79125
-5.59222
-5.38508
-5.16998
-4.94707
-4.71653
-4.47856
-4.23339
-3.98126
-3.72245
-3.45726
-3.18601
-2.90907
-2.62681
-2.3396
-2.04785
-1.752
-1.45246
-1.14964
-0.84403
-0.53612
-0.226393
0.0846659
0.396561
0.708858
1.02114
1.33289
1.64358
1.95274
2.25989
2.56489
2.8673
3.16646
3.46195
3.75371
4.04169
4.32524
4.60387
4.87769
5.14661
5.41014
5.66817
5.92075
6.16768
6.40882
6.64425
6.87387
7.09768
7.31576
7.52807
7.73471
7.93575
8.13122
8.32126
8.50592
8.68529
8.85957
9.02884
9.19317
9.35273
9.50768
9.65816
9.80437
9.94645
10.0846
10.219
10.3499
10.4769
10.6017
10.7182
10.846
10.9076
-7.17533
-7.179
-7.18494
-7.19071
-7.19538
-7.19928
-7.20279
-7.20618
-7.2096
-7.21318
-7.21702
-7.22117
-7.22568
-7.23057
-7.23587
-7.2416
-7.24775
-7.25435
-7.2614
-7.2689
-7.27687
-7.28531
-7.29423
-7.30363
-7.31351
-7.3239
-7.33478
-7.34617
-7.35807
-7.3705
-7.38344
-7.39692
-7.41093
-7.42548
-7.44057
-7.45622
-7.47241
-7.48915
-7.50644
-7.52428
-7.54266
-7.56159
-7.58105
-7.60103
-7.62153
-7.64252
-7.664
-7.68593
-7.7083
-7.73108
-7.75423
-7.77772
-7.80151
-7.82556
-7.84981
-7.87421
-7.89871
-7.92324
-7.94773
-7.9721
-7.99628
-8.02018
-8.04371
-8.06678
-8.08928
-8.1111
-8.13213
-8.15226
-8.17135
-8.18928
-8.2059
-8.22108
-8.23466
-8.24648
-8.25639
-8.26421
-8.26976
-8.27286
-8.2733
-8.27088
-8.26539
-8.2566
-8.24428
-8.22817
-8.20803
-8.18358
-8.15454
-8.12064
-8.08158
-8.03705
-7.98676
-7.9304
-7.86767
-7.79828
-7.72196
-7.63846
-7.54759
-7.44888
-7.34166
-7.22594
-7.10207
-6.96992
-6.82942
-6.68051
-6.52317
-6.35742
-6.18326
-6.00075
-5.80994
-5.61093
-5.40381
-5.18871
-4.96581
-4.73526
-4.49728
-4.25209
-3.99993
-3.74106
-3.4758
-3.20448
-2.92746
-2.6451
-2.3578
-2.06596
-1.77
-1.47036
-1.1674
-0.86163
-0.553572
-0.243702
0.0674904
0.379483
0.691891
1.00436
1.31631
1.62715
1.93642
2.24359
2.54875
2.85146
3.15082
3.44657
3.73855
4.02661
4.31025
4.58908
4.86305
5.13201
5.39563
5.65376
5.90639
6.15336
6.39455
6.62999
6.85963
7.08344
7.30149
7.51377
7.72036
7.92132
8.11672
8.30666
8.49121
8.67047
8.84462
9.01374
9.17793
9.33736
9.49217
9.64251
9.78855
9.93045
10.0683
10.2024
10.3327
10.4589
10.5825
10.6968
10.8227
10.8772
-7.18159
-7.18503
-7.19073
-7.19647
-7.20129
-7.2054
-7.20914
-7.21274
-7.21635
-7.22011
-7.22409
-7.22837
-7.23297
-7.23794
-7.24329
-7.24904
-7.25521
-7.26181
-7.26883
-7.2763
-7.28423
-7.29261
-7.30146
-7.31078
-7.32058
-7.33088
-7.34167
-7.35297
-7.36478
-7.37711
-7.38997
-7.40336
-7.4173
-7.43178
-7.44681
-7.4624
-7.47854
-7.49525
-7.51252
-7.53035
-7.54874
-7.56768
-7.58717
-7.60719
-7.62774
-7.6488
-7.67035
-7.69237
-7.71483
-7.73772
-7.76099
-7.78461
-7.80854
-7.83273
-7.85714
-7.8817
-7.90636
-7.93106
-7.95573
-7.98028
-8.00464
-8.02873
-8.05244
-8.0757
-8.09839
-8.1204
-8.14163
-8.16195
-8.18124
-8.19937
-8.2162
-8.23159
-8.24539
-8.25745
-8.2676
-8.27568
-8.28149
-8.28487
-8.28562
-8.28352
-8.27837
-8.26993
-8.25798
-8.24226
-8.22252
-8.19849
-8.16988
-8.1364
-8.09776
-8.05364
-8.00374
-7.94774
-7.88534
-7.81623
-7.74015
-7.6569
-7.56616
-7.46703
-7.35926
-7.24338
-7.11934
-6.98704
-6.84638
-6.69733
-6.53987
-6.37398
-6.19971
-6.01707
-5.82614
-5.627
-5.41976
-5.20453
-4.98149
-4.75081
-4.51269
-4.26735
-4.01503
-3.75597
-3.49052
-3.21902
-2.94181
-2.65927
-2.37177
-2.07975
-1.78363
-1.48382
-1.18064
-0.874628
-0.566361
-0.256301
0.0550592
0.367149
0.679656
0.99236
1.30455
1.61559
1.92507
2.23252
2.53783
2.84056
3.14004
3.43596
3.72809
4.01618
4.29984
4.57874
4.85275
5.12169
5.38529
5.64341
5.89598
6.14288
6.384
6.61934
6.84887
7.07256
7.29046
7.50259
7.70901
7.90979
8.105
8.29474
8.47908
8.65814
8.83207
9.00096
9.16495
9.32416
9.47876
9.62888
9.77469
9.9163
10.0539
10.1874
10.3171
10.4424
10.5647
10.677
10.801
10.8495
-7.18954
-7.19268
-7.19799
-7.20353
-7.20832
-7.21248
-7.2163
-7.21999
-7.22369
-7.22751
-7.23155
-7.23585
-7.24047
-7.24543
-7.25076
-7.25648
-7.26261
-7.26915
-7.27611
-7.28351
-7.29136
-7.29967
-7.30844
-7.31768
-7.3274
-7.33762
-7.34834
-7.35957
-7.37131
-7.38359
-7.39639
-7.40974
-7.42364
-7.4381
-7.45312
-7.4687
-7.48486
-7.50159
-7.51889
-7.53676
-7.55521
-7.57422
-7.59378
-7.6139
-7.63455
-7.65572
-7.6774
-7.69955
-7.72216
-7.7452
-7.76863
-7.79241
-7.81651
-7.84088
-7.86546
-7.89021
-7.91506
-7.93994
-7.96479
-7.98952
-8.01407
-8.03833
-8.06222
-8.08565
-8.1085
-8.13068
-8.15207
-8.17255
-8.192
-8.21029
-8.22728
-8.24283
-8.2568
-8.26902
-8.27935
-8.28761
-8.29362
-8.29721
-8.29818
-8.29632
-8.29143
-8.28327
-8.2716
-8.25619
-8.23677
-8.21306
-8.18478
-8.15164
-8.11332
-8.06951
-8.01988
-7.96413
-7.90192
-7.83296
-7.75703
-7.67388
-7.5827
-7.48282
-7.37461
-7.25842
-7.13411
-7.00155
-6.86064
-6.71134
-6.55364
-6.38753
-6.21304
-6.03019
-5.83904
-5.63968
-5.43222
-5.21678
-4.99352
-4.76262
-4.52428
-4.27875
-4.02619
-3.76687
-3.50116
-3.22941
-2.95196
-2.66917
-2.38145
-2.0892
-1.79291
-1.49297
-1.18956
-0.883252
-0.574747
-0.264465
0.0471202
0.359491
0.672252
0.985075
1.29737
1.60856
1.91821
2.22588
2.53129
2.83403
3.13357
3.42956
3.72173
4.00979
4.2934
4.57227
4.84622
5.11504
5.37853
5.63652
5.88893
6.13565
6.37659
6.61172
6.84102
7.06448
7.28213
7.494
7.70015
7.90066
8.09558
8.28502
8.46907
8.64785
8.82148
8.99009
9.1538
9.31274
9.46706
9.61691
9.76241
9.90369
10.0408
10.1739
10.3029
10.4272
10.5482
10.6586
10.7807
10.8242
-7.1987
-7.20149
-7.20631
-7.2115
-7.21611
-7.22018
-7.22395
-7.22761
-7.23128
-7.23507
-7.23905
-7.24329
-7.24784
-7.25272
-7.25796
-7.26359
-7.26961
-7.27605
-7.28291
-7.29022
-7.29797
-7.30618
-7.31486
-7.32403
-7.33368
-7.34383
-7.35449
-7.36567
-7.37738
-7.38962
-7.40241
-7.41576
-7.42967
-7.44414
-7.45919
-7.47482
-7.49103
-7.50783
-7.52521
-7.54317
-7.56172
-7.58084
-7.60053
-7.62078
-7.64158
-7.6629
-7.68473
-7.70705
-7.72983
-7.75304
-7.77664
-7.80061
-7.82489
-7.84943
-7.8742
-7.89912
-7.92414
-7.94919
-7.9742
-7.99909
-8.02377
-8.04817
-8.07219
-8.09574
-8.1187
-8.14099
-8.16247
-8.18304
-8.20257
-8.22093
-8.23799
-8.25362
-8.26765
-8.27995
-8.29036
-8.29871
-8.30482
-8.30852
-8.30961
-8.3079
-8.30316
-8.29517
-8.28369
-8.26848
-8.24927
-8.22579
-8.19774
-8.16483
-8.12672
-8.08311
-8.03366
-7.97802
-7.91589
-7.847
-7.77112
-7.68763
-7.59549
-7.49478
-7.3862
-7.26968
-7.14505
-7.01219
-6.87097
-6.72136
-6.56336
-6.39698
-6.22222
-6.0391
-5.8477
-5.64808
-5.44036
-5.22467
-5.00116
-4.77001
-4.53144
-4.28571
-4.03298
-3.7734
-3.50742
-3.23541
-2.95771
-2.67468
-2.38671
-2.09421
-1.79763
-1.49739
-1.1938
-0.887353
-0.57865
-0.26816
0.0436352
0.356242
0.669222
0.982164
1.29454
1.60582
1.91557
2.22334
2.52879
2.8315
3.13101
3.42698
3.71908
4.00703
4.29051
4.56924
4.84301
5.11163
5.3749
5.63265
5.8848
6.13124
6.37188
6.6067
6.83567
7.0588
7.2761
7.48761
7.6934
7.89353
8.08809
8.27716
8.46085
8.63927
8.81256
8.98082
9.1442
9.30281
9.45682
9.60634
9.75149
9.89238
10.0291
10.1615
10.2898
10.4131
10.5328
10.6414
10.7617
10.8012
-7.20861
-7.21103
-7.21532
-7.22006
-7.22435
-7.22821
-7.2318
-7.2353
-7.23883
-7.24247
-7.2463
-7.25039
-7.25478
-7.2595
-7.26459
-7.27006
-7.27593
-7.28222
-7.28895
-7.29613
-7.30377
-7.31188
-7.32047
-7.32956
-7.33914
-7.34924
-7.35987
-7.37102
-7.38272
-7.39497
-7.40778
-7.42116
-7.43511
-7.44965
-7.46477
-7.48048
-7.49679
-7.51369
-7.53119
-7.54928
-7.56796
-7.58723
-7.60707
-7.62748
-7.64843
-7.66992
-7.69192
-7.7144
-7.73735
-7.76073
-7.7845
-7.80862
-7.83305
-7.85775
-7.88265
-7.9077
-7.93284
-7.95799
-7.9831
-8.00807
-8.03282
-8.05727
-8.08132
-8.10489
-8.12786
-8.15014
-8.1716
-8.19214
-8.21164
-8.22995
-8.24697
-8.26254
-8.27652
-8.28877
-8.29913
-8.30743
-8.31352
-8.3172
-8.3183
-8.3166
-8.31191
-8.30397
-8.29256
-8.27743
-8.25832
-8.23496
-8.20703
-8.17424
-8.13625
-8.09272
-8.04333
-7.98772
-7.92561
-7.85673
-7.78059
-7.6959
-7.60254
-7.50143
-7.39254
-7.27568
-7.15073
-7.01759
-6.87614
-6.72625
-6.56798
-6.40133
-6.22631
-6.04295
-5.8513
-5.65144
-5.44348
-5.22755
-5.0038
-4.77241
-4.5336
-4.2876
-4.03463
-3.7749
-3.50873
-3.23652
-2.9586
-2.67534
-2.38715
-2.09443
-1.79761
-1.49711
-1.19334
-0.886756
-0.577908
-0.267276
0.0446566
0.357401
0.670497
0.983497
1.2959
1.6072
1.91694
2.2247
2.53009
2.83269
3.13209
3.42791
3.71985
4.00759
4.29083
4.56931
4.8428
5.11111
5.37404
5.63145
5.88323
6.12928
6.36952
6.60393
6.83248
7.05517
7.27204
7.48311
7.68845
7.88814
8.08225
8.27089
8.45416
8.63217
8.80505
8.97293
9.13593
9.29418
9.44783
9.59699
9.74177
9.88223
10.0184
10.1503
10.2778
10.4001
10.5185
10.6254
10.7439
10.7804
-7.21893
-7.221
-7.22473
-7.22894
-7.23281
-7.23632
-7.23961
-7.24282
-7.24607
-7.24945
-7.25302
-7.25686
-7.261
-7.26549
-7.27035
-7.27561
-7.28129
-7.2874
-7.29397
-7.30101
-7.30852
-7.31652
-7.32503
-7.33405
-7.34359
-7.35366
-7.36427
-7.37543
-7.38714
-7.39943
-7.41229
-7.42573
-7.43976
-7.45439
-7.46961
-7.48544
-7.50186
-7.5189
-7.53653
-7.55477
-7.5736
-7.59301
-7.613
-7.63355
-7.65465
-7.67628
-7.69842
-7.72104
-7.74411
-7.7676
-7.79147
-7.81568
-7.84019
-7.86495
-7.88989
-7.91497
-7.94012
-7.96526
-7.99034
-8.01526
-8.03993
-8.06429
-8.08823
-8.11166
-8.13449
-8.1566
-8.17789
-8.19824
-8.21753
-8.23565
-8.25245
-8.2678
-8.28157
-8.29362
-8.30378
-8.3119
-8.31781
-8.32134
-8.3223
-8.3205
-8.31573
-8.30776
-8.29632
-8.28118
-8.26208
-8.23875
-8.21086
-8.1781
-8.14014
-8.09663
-8.04725
-7.99167
-7.92956
-7.86038
-7.7828
-7.69665
-7.60289
-7.50151
-7.39233
-7.27518
-7.14994
-7.01652
-6.87484
-6.72477
-6.5663
-6.39945
-6.22422
-6.04066
-5.84881
-5.64876
-5.44062
-5.2245
-5.00057
-4.76901
-4.53001
-4.2838
-4.03063
-3.77074
-3.50444
-3.23208
-2.95402
-2.67063
-2.3823
-2.08944
-1.79248
-1.49186
-1.18799
-0.881345
-0.572443
-0.261767
0.0501966
0.36296
0.676053
0.989008
1.30133
1.61254
1.92217
2.2298
2.53501
2.8374
3.13656
3.43212
3.72377
4.01119
4.29408
4.57219
4.84529
5.11318
5.37567
5.63263
5.88393
6.12949
6.36924
6.60314
6.83117
7.05334
7.26968
7.48023
7.68506
7.88424
8.07785
8.266
8.44879
8.62634
8.79878
8.96624
9.12884
9.28671
9.43998
9.58875
9.73313
9.87316
10.0089
10.1401
10.2668
10.3881
10.5052
10.6107
10.7273
10.7617
-7.22942
-7.23117
-7.23437
-7.238
-7.24134
-7.24436
-7.24719
-7.24997
-7.2528
-7.25577
-7.25896
-7.26243
-7.26623
-7.2704
-7.27498
-7.27997
-7.28542
-7.29133
-7.29772
-7.3046
-7.31199
-7.3199
-7.32833
-7.3373
-7.3468
-7.35687
-7.36749
-7.37867
-7.39044
-7.40278
-7.41572
-7.42925
-7.44337
-7.4581
-7.47344
-7.48938
-7.50593
-7.52309
-7.54085
-7.5592
-7.57814
-7.59766
-7.61775
-7.63839
-7.65956
-7.68125
-7.70343
-7.72608
-7.74915
-7.77263
-7.79647
-7.82063
-7.84506
-7.86971
-7.89453
-7.91945
-7.94442
-7.96938
-7.99424
-8.01893
-8.04335
-8.06741
-8.09105
-8.11416
-8.13665
-8.15841
-8.17934
-8.19932
-8.21823
-8.23597
-8.25239
-8.26737
-8.28077
-8.29246
-8.30228
-8.31007
-8.31568
-8.31893
-8.31964
-8.31762
-8.31266
-8.30454
-8.293
-8.27778
-8.25863
-8.23525
-8.20732
-8.17453
-8.13655
-8.09303
-8.04369
-7.98813
-7.92549
-7.85457
-7.77548
-7.68899
-7.59505
-7.49346
-7.38406
-7.26671
-7.14127
-7.00766
-6.86578
-6.71556
-6.55697
-6.38999
-6.21466
-6.03099
-5.83905
-5.63891
-5.43069
-5.21449
-4.99049
-4.75886
-4.51979
-4.27351
-4.02028
-3.76034
-3.49401
-3.22163
-2.94355
-2.66015
-2.37181
-2.07896
-1.78201
-1.48139
-1.17756
-0.870988
-0.562165
-0.251582
0.0602734
0.372913
0.685858
0.998631
1.31075
1.62172
1.93111
2.23845
2.54336
2.8454
3.1442
3.43937
3.7306
4.01758
4.3
4.57762
4.85021
5.11756
5.3795
5.6359
5.88662
6.1316
6.37075
6.60405
6.83149
7.05306
7.26881
7.47877
7.68302
7.88162
8.07468
8.2623
8.44458
8.62165
8.79362
8.96064
9.12282
9.28029
9.43317
9.58156
9.72553
9.86512
10.0003
10.1309
10.2569
10.3773
10.4932
10.5973
10.712
10.7453
-7.24008
-7.24154
-7.24423
-7.24723
-7.24992
-7.25228
-7.25446
-7.2566
-7.25882
-7.26122
-7.26387
-7.26686
-7.27021
-7.27398
-7.2782
-7.28289
-7.28807
-7.29376
-7.29996
-7.30669
-7.31396
-7.32178
-7.33015
-7.33908
-7.34858
-7.35865
-7.36929
-7.38052
-7.39234
-7.40475
-7.41775
-7.43136
-7.44557
-7.46038
-7.47579
-7.49181
-7.50842
-7.52563
-7.54343
-7.56182
-7.58077
-7.60027
-7.62032
-7.6409
-7.66199
-7.68357
-7.70561
-7.72809
-7.75097
-7.77423
-7.79782
-7.82169
-7.84581
-7.87013
-7.89458
-7.91912
-7.94367
-7.96818
-7.99258
-8.01678
-8.04071
-8.06427
-8.08739
-8.10996
-8.1319
-8.15311
-8.17348
-8.1929
-8.21126
-8.22844
-8.24432
-8.25878
-8.27167
-8.28287
-8.29222
-8.29958
-8.30478
-8.30765
-8.30802
-8.30569
-8.30046
-8.2921
-8.28037
-8.26501
-8.24573
-8.22225
-8.19424
-8.16139
-8.12345
-8.07995
-8.03054
-7.97393
-7.90924
-7.83712
-7.75784
-7.67129
-7.57727
-7.4756
-7.36612
-7.24869
-7.1232
-6.98954
-6.84763
-6.6974
-6.53881
-6.37187
-6.19656
-6.01294
-5.82105
-5.62098
-5.41282
-5.19671
-4.9728