/*--------------------------------*- C++ -*----------------------------------*\
| =========                 |                                                 |
| \\      /  F ield         | OpenFOAM: The Open Source CFD Toolbox           |
|  \\    /   O peration     | Version:  2.2.x                                 |
|   \\  /    A nd           | Web:      www.OpenFOAM.org                      |
|    \\/     M anipulation  |                                                 |
\*---------------------------------------------------------------------------*/
FoamFile
{
    version     2.0;
    format      ascii;
    class       surfaceScalarField;
    location    "750";
    object      phi;
}
// * * * * * * * * * * * * * * * * * * * * * * * * * * * * * * * * * * * * * //

dimensions      [0 3 -1 0 0 0 0];

internalField   nonuniform List<scalar> 
24170
(
3.08816e-06
4.57363e-08
3.0142e-06
7.39614e-08
2.95204e-06
6.21565e-08
2.88975e-06
6.2294e-08
2.83017e-06
5.95797e-08
2.77472e-06
5.54473e-08
2.72344e-06
5.1281e-08
2.67605e-06
4.73888e-08
2.63225e-06
4.37987e-08
2.59175e-06
4.05005e-08
2.55427e-06
3.74754e-08
2.51957e-06
3.47005e-08
2.48742e-06
3.21539e-08
2.4576e-06
2.98241e-08
2.42986e-06
2.774e-08
2.40366e-06
2.61986e-08
2.37677e-06
2.68836e-08
3.04418e-08
2.34633e-06
3.46858e-06
3.36004e-08
3.45792e-06
8.46226e-08
3.44339e-06
7.66831e-08
3.42857e-06
7.71155e-08
3.41238e-06
7.57722e-08
3.39524e-06
7.2591e-08
3.37746e-06
6.90534e-08
3.3593e-06
6.55481e-08
3.34098e-06
6.21194e-08
3.3227e-06
5.87852e-08
3.30461e-06
5.55626e-08
3.28685e-06
5.24617e-08
3.26951e-06
4.94905e-08
3.25267e-06
4.66675e-08
3.23635e-06
4.40575e-08
3.22066e-06
4.18892e-08
3.20707e-06
4.04779e-08
3.80223e-08
3.19949e-06
3.80922e-06
3.65727e-08
3.81785e-06
7.59937e-08
3.82008e-06
7.44517e-08
3.82215e-06
7.50471e-08
3.82294e-06
7.49788e-08
3.82241e-06
7.31225e-08
3.82089e-06
7.05777e-08
3.81861e-06
6.78252e-08
3.81576e-06
6.49741e-08
3.81247e-06
6.20771e-08
3.80885e-06
5.91776e-08
3.80501e-06
5.63068e-08
3.80101e-06
5.34869e-08
3.79693e-06
5.07437e-08
3.79287e-06
4.81231e-08
3.78905e-06
4.57012e-08
3.78617e-06
4.33669e-08
3.95954e-08
3.78459e-06
4.20601e-06
3.51171e-08
4.21523e-06
6.67824e-08
4.21956e-06
7.01163e-08
4.2232e-06
7.14132e-08
4.22618e-06
7.19982e-08
4.22844e-06
7.08617e-08
4.2302e-06
6.88156e-08
4.23161e-06
6.6412e-08
4.23276e-06
6.38288e-08
4.23369e-06
6.11437e-08
4.23446e-06
5.84118e-08
4.23509e-06
5.56699e-08
4.23564e-06
5.29416e-08
4.23614e-06
5.02438e-08
4.23667e-06
4.75877e-08
4.23743e-06
4.4946e-08
4.23871e-06
4.20833e-08
3.80219e-08
4.24029e-06
4.64072e-06
3.17069e-08
4.64865e-06
5.88463e-08
4.6536e-06
6.51658e-08
4.65777e-06
6.72482e-08
4.66158e-06
6.8187e-08
4.66494e-06
6.75067e-08
4.66792e-06
6.58272e-08
4.67064e-06
6.36937e-08
4.67315e-06
6.13228e-08
4.67548e-06
5.88091e-08
4.67768e-06
5.62138e-08
4.67977e-06
5.35769e-08
4.68179e-06
5.09208e-08
4.68378e-06
4.82537e-08
4.68581e-06
4.55636e-08
4.68797e-06
4.27857e-08
4.69033e-06
3.97181e-08
3.58903e-08
4.69247e-06
5.11834e-06
2.79577e-08
5.12554e-06
5.16472e-08
5.13106e-06
5.96539e-08
5.13578e-06
6.25288e-08
5.14015e-06
6.38108e-08
5.14412e-06
6.35387e-08
5.14773e-06
6.22162e-08
5.15107e-06
6.03515e-08
5.15421e-06
5.81871e-08
5.15718e-06
5.58364e-08
5.16003e-06
5.33689e-08
5.16277e-06
5.0829e-08
5.16546e-06
4.82396e-08
5.1681e-06
4.56047e-08
5.17076e-06
4.29034e-08
5.17348e-06
4.00705e-08
5.17623e-06
3.69667e-08
3.33844e-08
5.17874e-06
5.64454e-06
2.44241e-08
5.65122e-06
4.49655e-08
5.65708e-06
5.37922e-08
5.66224e-06
5.73716e-08
5.66705e-06
5.90015e-08
5.67149e-06
5.91029e-08
5.67558e-06
5.81231e-08
5.67941e-06
5.65263e-08
5.68302e-06
5.45706e-08
5.68647e-06
5.23865e-08
5.68979e-06
5.00523e-08
5.693e-06
4.7617e-08
5.69613e-06
4.51061e-08
5.69921e-06
4.25241e-08
5.70226e-06
3.98531e-08
5.70529e-06
3.7046e-08
5.70823e-06
3.40266e-08
3.07325e-08
5.71088e-06
4.40852e-06
2.20134e-08
4.41294e-06
4.05488e-08
4.41725e-06
4.94842e-08
4.42116e-06
5.34628e-08
4.42483e-06
5.5332e-08
4.42826e-06
5.5666e-08
4.43147e-06
5.49126e-08
4.43449e-06
5.35058e-08
4.43736e-06
5.17039e-08
4.4401e-06
4.96455e-08
4.44274e-06
4.74152e-08
4.44529e-06
4.50654e-08
4.44777e-06
4.26241e-08
4.4502e-06
4.00989e-08
4.45257e-06
3.74783e-08
4.45489e-06
3.47314e-08
4.4571e-06
3.18157e-08
2.87301e-08
4.4591e-06
5.14231e-06
1.95567e-08
5.14681e-06
3.6053e-08
5.15144e-06
4.48583e-08
5.15579e-06
4.91105e-08
5.15994e-06
5.11781e-08
5.16388e-06
5.17268e-08
5.1676e-06
5.11958e-08
5.17112e-06
4.99858e-08
5.17447e-06
4.83499e-08
5.17768e-06
4.64326e-08
5.18078e-06
4.43227e-08
5.18377e-06
4.20765e-08
5.18666e-06
3.97255e-08
5.18948e-06
3.72823e-08
5.19222e-06
3.47442e-08
5.19485e-06
3.20975e-08
5.19734e-06
2.93279e-08
2.64708e-08
5.1996e-06
5.99826e-06
1.70858e-08
6.00277e-06
3.15417e-08
6.00766e-06
3.99743e-08
6.01242e-06
4.43468e-08
6.01705e-06
4.65469e-08
6.02151e-06
4.72734e-08
6.02576e-06
4.69474e-08
6.02981e-06
4.59312e-08
6.03369e-06
4.4468e-08
6.03742e-06
4.27041e-08
6.04101e-06
4.07314e-08
6.04448e-06
3.86092e-08
6.04783e-06
3.63731e-08
6.05107e-06
3.40421e-08
6.05419e-06
3.16234e-08
6.05717e-06
2.9119e-08
6.05996e-06
2.65351e-08
2.39234e-08
6.06251e-06
6.99672e-06
1.46317e-08
7.00119e-06
2.70745e-08
7.00627e-06
3.48883e-08
7.01141e-06
3.92092e-08
7.0165e-06
4.14583e-08
7.02146e-06
4.23089e-08
7.02626e-06
4.21559e-08
7.03087e-06
4.13206e-08
7.0353e-06
4.00301e-08
7.03958e-06
3.84283e-08
7.0437e-06
3.66083e-08
7.04768e-06
3.46315e-08
7.05152e-06
3.25378e-08
7.05521e-06
3.03525e-08
7.05874e-06
2.80921e-08
7.06209e-06
2.57707e-08
7.06521e-06
2.34078e-08
2.10582e-08
7.06808e-06
8.16143e-06
1.22211e-08
8.16581e-06
2.2688e-08
8.17104e-06
2.96582e-08
8.17651e-06
3.37396e-08
8.18203e-06
3.59361e-08
8.1875e-06
3.68426e-08
8.19284e-06
3.68183e-08
8.19802e-06
3.61419e-08
8.20303e-06
3.50183e-08
8.20787e-06
3.35845e-08
8.21255e-06
3.1932e-08
8.21706e-06
3.0123e-08
8.22139e-06
2.82008e-08
8.22555e-06
2.61958e-08
8.22951e-06
2.41318e-08
8.23325e-06
2.20307e-08
8.23674e-06
1.99182e-08
1.78452e-08
8.23995e-06
9.52008e-06
9.87101e-09
9.52437e-06
1.8396e-08
9.5297e-06
2.43323e-08
9.53545e-06
2.79798e-08
9.54139e-06
3.00031e-08
9.54735e-06
3.08836e-08
9.55323e-06
3.09325e-08
9.55899e-06
3.03846e-08
9.56459e-06
2.94173e-08
9.57002e-06
2.81552e-08
9.57527e-06
2.66848e-08
9.58032e-06
2.5067e-08
9.58518e-06
2.33464e-08
9.58982e-06
2.15564e-08
9.59422e-06
1.97247e-08
9.59838e-06
1.78766e-08
9.60226e-06
1.6039e-08
1.42555e-08
9.60585e-06
1.1105e-05
7.58421e-09
1.11092e-05
1.41893e-08
1.11146e-05
1.89372e-08
1.11206e-05
2.19623e-08
1.11269e-05
2.36768e-08
1.11334e-05
2.44368e-08
1.11398e-05
2.44931e-08
1.11462e-05
2.40349e-08
1.11524e-05
2.32076e-08
1.11584e-05
2.21182e-08
1.11643e-05
2.08437e-08
1.11699e-05
1.94406e-08
1.11753e-05
1.79513e-08
1.11804e-05
1.64094e-08
1.11853e-05
1.48428e-08
1.11899e-05
1.32764e-08
1.11942e-05
1.17345e-08
1.0253e-08
1.11982e-05
1.29539e-05
5.34478e-09
1.2958e-05
1.00315e-08
1.29635e-05
1.3464e-08
1.29698e-05
1.56931e-08
1.29765e-05
1.6957e-08
1.29834e-05
1.74927e-08
1.29904e-05
1.7483e-08
1.29974e-05
1.70687e-08
1.30043e-05
1.63599e-08
1.30109e-05
1.54406e-08
1.30174e-05
1.43736e-08
1.30236e-05
1.32065e-08
1.30296e-05
1.19762e-08
1.30353e-05
1.07124e-08
1.30407e-05
9.43974e-09
1.30458e-05
8.17987e-09
1.30506e-05
6.95267e-09
5.78619e-09
1.30551e-05
1.51107e-05
3.11277e-09
1.51149e-05
5.84932e-09
1.51205e-05
7.84976e-09
1.5127e-05
9.12632e-09
1.51342e-05
9.8e-09
1.51417e-05
1.00054e-08
1.51493e-05
9.85419e-09
1.5157e-05
9.43568e-09
1.51645e-05
8.82126e-09
1.51719e-05
8.06721e-09
1.5179e-05
7.21715e-09
1.51859e-05
6.30521e-09
1.51925e-05
5.3586e-09
1.51989e-05
4.39957e-09
1.52048e-05
3.44672e-09
1.52105e-05
2.51592e-09
1.52158e-05
1.62146e-09
7.84072e-10
1.52208e-05
1.76267e-05
8.15984e-10
1.76311e-05
1.50921e-09
1.7637e-05
1.945e-09
1.7644e-05
2.11992e-09
1.76517e-05
2.07292e-09
1.76599e-05
1.84913e-09
1.76682e-05
1.48797e-09
1.76767e-05
1.02327e-09
1.7685e-05
4.83779e-10
1.76932e-05
-1.06601e-10
1.77011e-05
-7.28276e-10
1.77088e-05
-1.36502e-09
1.77161e-05
-2.00319e-09
1.77232e-05
-2.63117e-09
1.77299e-05
-3.23898e-09
1.77362e-05
-3.81803e-09
1.77422e-05
-4.36045e-09
-4.85245e-09
1.77478e-05
1.78284e-05
-1.36138e-09
1.78325e-05
-2.62526e-09
1.78382e-05
-3.71612e-09
1.78449e-05
-4.6363e-09
1.78524e-05
-5.40983e-09
1.78603e-05
-6.07272e-09
1.78685e-05
-6.65489e-09
1.78767e-05
-7.1761e-09
1.78848e-05
-7.64947e-09
1.78928e-05
-8.08383e-09
1.79005e-05
-8.48448e-09
1.7908e-05
-8.8541e-09
1.79152e-05
-9.19352e-09
1.79221e-05
-9.50239e-09
1.79286e-05
-9.77965e-09
1.79348e-05
-1.00239e-08
1.79407e-05
-1.0233e-08
-1.03993e-08
1.79463e-05
1.58833e-05
-3.3102e-09
1.5887e-05
-6.3349e-09
1.58921e-05
-8.79891e-09
1.58981e-05
-1.06834e-08
1.59048e-05
-1.20782e-08
1.59118e-05
-1.31058e-08
1.5919e-05
-1.3862e-08
1.59263e-05
-1.44139e-08
1.59334e-05
-1.48123e-08
1.59404e-05
-1.50955e-08
1.59473e-05
-1.52912e-08
1.59538e-05
-1.54186e-08
1.59601e-05
-1.54914e-08
1.59661e-05
-1.5519e-08
1.59719e-05
-1.55081e-08
1.59773e-05
-1.54631e-08
1.59825e-05
-1.53869e-08
-1.52758e-08
1.59873e-05
1.41505e-05
-5.13585e-09
1.4154e-05
-9.84086e-09
1.41588e-05
-1.35945e-08
1.41644e-05
-1.6325e-08
1.41706e-05
-1.82258e-08
1.4177e-05
-1.95311e-08
1.41835e-05
-2.03997e-08
1.41901e-05
-2.09408e-08
1.41965e-05
-2.12402e-08
1.42028e-05
-2.13631e-08
1.42088e-05
-2.13563e-08
1.42147e-05
-2.1253e-08
1.42202e-05
-2.10774e-08
1.42256e-05
-2.08471e-08
1.42306e-05
-2.05749e-08
1.42354e-05
-2.02702e-08
1.424e-05
-1.99394e-08
-1.95828e-08
1.42443e-05
1.26068e-05
-6.87683e-09
1.26102e-05
-1.32856e-08
1.26149e-05
-1.82953e-08
1.26203e-05
-2.17419e-08
1.26261e-05
-2.40222e-08
1.26321e-05
-2.55144e-08
1.26381e-05
-2.64284e-08
1.26441e-05
-2.69107e-08
1.26499e-05
-2.70814e-08
1.26556e-05
-2.70296e-08
1.26611e-05
-2.68175e-08
1.26663e-05
-2.64893e-08
1.26713e-05
-2.60773e-08
1.26761e-05
-2.56058e-08
1.26806e-05
-2.50929e-08
1.26849e-05
-2.45524e-08
1.26889e-05
-2.39945e-08
-2.3423e-08
1.26928e-05
1.12314e-05
-8.50273e-09
1.12349e-05
-1.67803e-08
1.12397e-05
-2.30366e-08
1.12449e-05
-2.70245e-08
1.12505e-05
-2.95476e-08
1.12561e-05
-3.11387e-08
1.12617e-05
-3.20292e-08
1.12672e-05
-3.24017e-08
1.12725e-05
-3.24121e-08
1.12777e-05
-3.21696e-08
1.12826e-05
-3.17472e-08
1.12873e-05
-3.11968e-08
1.12918e-05
-3.05567e-08
1.1296e-05
-2.98554e-08
1.13e-05
-2.91146e-08
1.13038e-05
-2.83511e-08
1.13074e-05
-2.75775e-08
-2.68008e-08
1.13108e-05
1.0006e-05
-9.90114e-09
1.00097e-05
-2.04458e-08
1.00146e-05
-2.79215e-08
1.00197e-05
-3.22018e-08
1.0025e-05
-3.48302e-08
1.00303e-05
-3.64377e-08
1.00355e-05
-3.72354e-08
1.00406e-05
-3.74499e-08
1.00454e-05
-3.72727e-08
1.00501e-05
-3.68258e-08
1.00545e-05
-3.6189e-08
1.00588e-05
-3.5419e-08
1.00628e-05
-3.45582e-08
1.00665e-05
-3.36377e-08
1.00701e-05
-3.26821e-08
1.00735e-05
-3.17118e-08
1.00766e-05
-3.07451e-08
-2.9798e-08
1.00796e-05
8.91406e-06
-1.08659e-08
8.91803e-06
-2.44132e-08
8.92307e-06
-3.29621e-08
8.92809e-06
-3.7222e-08
8.93311e-06
-3.98449e-08
8.93805e-06
-4.13857e-08
8.94284e-06
-4.20165e-08
8.94742e-06
-4.20305e-08
8.95179e-06
-4.16476e-08
8.95596e-06
-4.09925e-08
8.95991e-06
-4.01458e-08
8.96366e-06
-3.91664e-08
8.9672e-06
-3.80976e-08
8.97053e-06
-3.6971e-08
8.97366e-06
-3.58109e-08
8.97659e-06
-3.46375e-08
8.97931e-06
-3.34691e-08
-3.23217e-08
8.98184e-06
7.94096e-06
-1.11621e-08
7.94547e-06
-2.8923e-08
7.95052e-06
-3.80121e-08
7.95525e-06
-4.19456e-08
7.95995e-06
-4.45466e-08
7.96452e-06
-4.59581e-08
7.96886e-06
-4.6356e-08
7.97296e-06
-4.61324e-08
7.97684e-06
-4.55265e-08
7.98051e-06
-4.46577e-08
7.98397e-06
-4.36044e-08
7.98722e-06
-4.2425e-08
7.99029e-06
-4.11618e-08
7.99316e-06
-3.98448e-08
7.99585e-06
-3.84969e-08
7.99835e-06
-3.71388e-08
8.00068e-06
-3.57976e-08
-3.45178e-08
8.00287e-06
7.07291e-06
-9.74296e-09
7.07859e-06
-3.45974e-08
7.08339e-06
-4.28135e-08
7.08759e-06
-4.61478e-08
7.09183e-06
-4.87894e-08
7.09592e-06
-5.00444e-08
7.09976e-06
-5.01964e-08
7.10337e-06
-4.97419e-08
7.10676e-06
-4.89191e-08
7.10994e-06
-4.78398e-08
7.11292e-06
-4.65828e-08
7.1157e-06
-4.52072e-08
7.1183e-06
-4.37547e-08
7.1207e-06
-4.22529e-08
7.12293e-06
-4.07195e-08
7.12495e-06
-3.91646e-08
7.12675e-06
-3.75979e-08
-3.60255e-08
7.12826e-06
6.29709e-06
-4.31733e-09
6.30527e-06
-4.27786e-08
6.3101e-06
-4.76474e-08
6.31412e-06
-5.01634e-08
6.31793e-06
-5.26062e-08
6.3213e-06
-5.34115e-08
6.32428e-06
-5.31803e-08
6.32699e-06
-5.24483e-08
6.32947e-06
-5.1396e-08
6.33174e-06
-5.0109e-08
6.33381e-06
-4.86586e-08
6.33571e-06
-4.71013e-08
6.33743e-06
-4.54764e-08
6.33899e-06
-4.38094e-08
6.34038e-06
-4.21134e-08
6.3416e-06
-4.03898e-08
6.34265e-06
-3.86424e-08
-3.68796e-08
6.3435e-06
5.60106e-06
9.52055e-09
5.61058e-06
-5.23004e-08
5.61458e-06
-5.16477e-08
5.6189e-06
-5.44802e-08
5.62275e-06
-5.64532e-08
5.62559e-06
-5.62499e-08
5.62758e-06
-5.51717e-08
5.62891e-06
-5.37822e-08
5.62971e-06
-5.21975e-08
5.63007e-06
-5.04705e-08
5.63007e-06
-4.86534e-08
5.62976e-06
-4.67876e-08
5.62918e-06
-4.4902e-08
5.62839e-06
-4.30138e-08
5.6274e-06
-4.11273e-08
5.62623e-06
-3.92232e-08
5.62483e-06
-3.72442e-08
-3.49305e-08
5.62289e-06
5.00884e-06
2.98398e-09
5.00511e-06
-4.85649e-08
4.99663e-06
-4.31693e-08
4.98995e-06
-4.77956e-08
4.9831e-06
-4.96101e-08
4.97571e-06
-4.88554e-08
4.96772e-06
-4.71857e-08
4.95914e-06
-4.52009e-08
4.95002e-06
-4.30751e-08
4.94045e-06
-4.08979e-08
4.93052e-06
-3.87308e-08
4.92035e-06
-3.66132e-08
4.91001e-06
-3.45676e-08
4.8996e-06
-3.26043e-08
4.8892e-06
-3.07225e-08
4.87888e-06
-2.89013e-08
4.86871e-06
-2.7074e-08
-2.48059e-08
4.85858e-06
4.45953e-06
4.41097e-06
4.3678e-06
4.32e-06
4.27039e-06
4.22154e-06
4.17435e-06
4.12915e-06
4.08608e-06
4.04518e-06
4.00645e-06
3.96983e-06
3.93527e-06
3.90266e-06
3.87194e-06
3.84304e-06
3.81596e-06
3.79116e-06
1.20429e-08
-1.20429e-08
2.37123e-08
-1.1668e-08
3.04932e-08
-6.77997e-09
3.12981e-08
-8.04203e-10
2.62998e-08
4.99876e-09
1.62565e-08
1.00433e-08
2.1021e-09
1.41547e-08
-1.53087e-08
1.74107e-08
-3.51587e-08
1.98498e-08
-5.69332e-08
2.17743e-08
-8.03479e-08
2.34145e-08
-1.05219e-07
2.4871e-08
-1.31398e-07
2.61779e-08
-1.58743e-07
2.7345e-08
-1.87119e-07
2.83759e-08
-2.16394e-07
2.92756e-08
-2.46446e-07
3.00515e-08
-2.77158e-07
3.07131e-08
-3.0843e-07
3.12717e-08
-3.40168e-07
3.17385e-08
-3.72292e-07
3.21251e-08
-4.04735e-07
3.24426e-08
-4.37436e-07
3.27013e-08
-4.70346e-07
3.29109e-08
-5.03426e-07
3.30799e-08
-5.36642e-07
3.3216e-08
-5.69968e-07
3.33261e-08
-6.03384e-07
3.34159e-08
-6.36874e-07
3.34904e-08
-6.70428e-07
3.35538e-08
-7.04037e-07
3.36094e-08
-7.37697e-07
3.36599e-08
-7.71404e-07
3.37075e-08
-8.05158e-07
3.37535e-08
-8.38956e-07
3.3799e-08
-8.72801e-07
3.38446e-08
-9.06692e-07
3.38907e-08
-9.40629e-07
3.39375e-08
-9.74614e-07
3.39851e-08
-1.00865e-06
3.40339e-08
-1.04273e-06
3.40844e-08
-1.07687e-06
3.41388e-08
-1.11108e-06
3.42052e-08
-1.14537e-06
3.42989e-08
-1.1798e-06
3.44215e-08
-1.21436e-06
3.45599e-08
-1.24906e-06
3.47066e-08
-1.28392e-06
3.48563e-08
-1.31893e-06
3.50055e-08
-1.35408e-06
3.51511e-08
-1.38937e-06
3.52905e-08
-1.42479e-06
3.54218e-08
-1.46033e-06
3.55428e-08
-1.49598e-06
3.56517e-08
-1.53173e-06
3.57469e-08
-1.56756e-06
3.58266e-08
-1.60345e-06
3.58893e-08
-1.63938e-06
3.59335e-08
-1.67534e-06
3.59578e-08
-1.7113e-06
3.59607e-08
-1.74724e-06
3.59409e-08
-1.78314e-06
3.58972e-08
-1.81896e-06
3.58281e-08
-1.8547e-06
3.57323e-08
-1.89031e-06
3.56086e-08
-1.92576e-06
3.54557e-08
-1.96103e-06
3.52722e-08
-1.99609e-06
3.50569e-08
-2.0309e-06
3.48086e-08
-2.06543e-06
3.4526e-08
-2.09963e-06
3.42075e-08
-2.13348e-06
3.38519e-08
-2.16694e-06
3.34575e-08
-2.19996e-06
3.30227e-08
-2.23251e-06
3.25461e-08
-2.26454e-06
3.20259e-08
-2.296e-06
3.14605e-08
-2.32685e-06
3.08478e-08
-2.35703e-06
3.01861e-08
-2.38651e-06
2.94734e-08
-2.41521e-06
2.87077e-08
-2.4431e-06
2.7887e-08
-2.47011e-06
2.70095e-08
-2.49618e-06
2.6073e-08
-2.52126e-06
2.50759e-08
-2.54528e-06
2.40165e-08
-2.56817e-06
2.28935e-08
-2.58988e-06
2.17059e-08
-2.61033e-06
2.0453e-08
-2.62946e-06
1.91345e-08
-2.64721e-06
1.77504e-08
-2.66351e-06
1.63013e-08
-2.6783e-06
1.47885e-08
-2.69152e-06
1.32143e-08
-2.7031e-06
1.1581e-08
-2.71299e-06
9.89166e-09
-2.72114e-06
8.14944e-09
-2.7275e-06
6.35782e-09
-2.73202e-06
4.52025e-09
-2.73466e-06
2.63892e-09
-2.73537e-06
7.12714e-10
-2.73413e-06
-1.24597e-09
-2.73091e-06
-3.21439e-09
-2.72572e-06
-5.18673e-09
-2.71856e-06
-7.16581e-09
-2.70941e-06
-9.15095e-09
-2.69827e-06
-1.11406e-08
-2.68513e-06
-1.3133e-08
-2.67001e-06
-1.5126e-08
-2.65289e-06
-1.71175e-08
-2.63378e-06
-1.91052e-08
-2.6127e-06
-2.10866e-08
-2.58964e-06
-2.30588e-08
-2.56462e-06
-2.50189e-08
-2.53766e-06
-2.69637e-08
-2.50877e-06
-2.88898e-08
-2.47797e-06
-3.0794e-08
-2.4453e-06
-3.26723e-08
-2.41078e-06
-3.45207e-08
-2.37444e-06
-3.63352e-08
-2.33633e-06
-3.81119e-08
-2.29648e-06
-3.98472e-08
-2.25495e-06
-4.15373e-08
-2.21177e-06
-4.31783e-08
-2.167e-06
-4.47668e-08
-2.1207e-06
-4.62995e-08
-2.07293e-06
-4.77723e-08
-2.02375e-06
-4.91809e-08
-1.97323e-06
-5.0521e-08
-1.92144e-06
-5.17901e-08
-1.86845e-06
-5.29857e-08
-1.81435e-06
-5.41052e-08
-1.7592e-06
-5.51462e-08
-1.7031e-06
-5.61067e-08
-1.64611e-06
-5.6984e-08
-1.58834e-06
-5.77754e-08
-1.52986e-06
-5.84794e-08
-1.47076e-06
-5.90968e-08
-1.41113e-06
-5.96297e-08
-1.35106e-06
-6.00759e-08
-1.29063e-06
-6.04312e-08
-1.22993e-06
-6.06975e-08
-1.16904e-06
-6.08818e-08
-1.10806e-06
-6.09863e-08
-1.04705e-06
-6.10047e-08
-9.86116e-07
-6.09369e-08
-9.25316e-07
-6.07985e-08
-8.64722e-07
-6.05942e-08
-8.04412e-07
-6.03101e-08
-7.44456e-07
-5.99547e-08
-6.84903e-07
-5.95524e-08
-6.25814e-07
-5.90901e-08
-5.67255e-07
-5.85611e-08
-5.09248e-07
-5.80076e-08
-4.51852e-07
-5.73951e-08
-3.95104e-07
-5.67495e-08
-3.38996e-07
-5.61078e-08
-2.83609e-07
-5.53883e-08
-2.28897e-07
-5.4713e-08
-1.7491e-07
-5.39868e-08
-1.21695e-07
-5.32175e-08
-6.91353e-08
-5.25576e-08
-1.72237e-08
-5.19111e-08
3.39106e-08
-5.11327e-08
8.39157e-08
-5.00008e-08
1.32719e-07
-4.88037e-08
1.8054e-07
-4.78184e-08
2.27528e-07
-4.69868e-08
2.73781e-07
-4.62542e-08
3.19379e-07
-4.55962e-08
3.6437e-07
-4.49918e-08
4.08788e-07
-4.44171e-08
4.52613e-07
-4.38261e-08
4.9575e-07
-4.31366e-08
5.37962e-07
-4.22117e-08
5.78638e-07
-4.06764e-08
6.1671e-07
-3.80692e-08
6.48778e-07
-3.20662e-08
6.70195e-07
-2.14158e-08
1.51802e-08
6.55017e-07
4.87789e-09
-1.69222e-08
3.60216e-09
-1.03932e-08
-3.15431e-09
-2.44015e-11
-1.37885e-08
9.82962e-09
-2.72781e-08
1.84881e-08
-4.31544e-08
2.59196e-08
-6.11582e-08
3.21586e-08
-8.10412e-08
3.7294e-08
-1.02677e-07
4.14861e-08
-1.25877e-07
4.49748e-08
-1.50414e-07
4.79515e-08
-1.76081e-07
5.0539e-08
-2.0271e-07
5.28072e-08
-2.3016e-07
5.47953e-08
-2.58311e-07
5.65287e-08
-2.87063e-07
5.80277e-08
-3.16322e-07
5.93118e-08
-3.46009e-07
6.04009e-08
-3.76052e-07
6.13153e-08
-4.06388e-07
6.20757e-08
-4.36964e-07
6.27018e-08
-4.67734e-07
6.32128e-08
-4.98659e-07
6.36269e-08
-5.29708e-07
6.39604e-08
-5.60856e-07
6.42284e-08
-5.92084e-07
6.44445e-08
-6.23378e-07
6.46204e-08
-6.54728e-07
6.47664e-08
-6.86129e-07
6.48915e-08
-7.17578e-07
6.5003e-08
-7.49076e-07
6.51071e-08
-7.80624e-07
6.52087e-08
-8.12228e-07
6.53118e-08
-8.43894e-07
6.54195e-08
-8.75629e-07
6.5534e-08
-9.07441e-07
6.56568e-08
-9.3934e-07
6.57891e-08
-9.71334e-07
6.59316e-08
-1.00343e-06
6.60848e-08
-1.03565e-06
6.62494e-08
-1.06799e-06
6.64261e-08
-1.10047e-06
6.66172e-08
-1.13309e-06
6.68266e-08
-1.16585e-06
6.70585e-08
-1.19874e-06
6.73104e-08
-1.23175e-06
6.75751e-08
-1.26489e-06
6.78459e-08
-1.29815e-06
6.81171e-08
-1.33153e-06
6.83833e-08
-1.36502e-06
6.86402e-08
-1.39861e-06
6.88835e-08
-1.4323e-06
6.91094e-08
-1.46607e-06
6.93143e-08
-1.49992e-06
6.94948e-08
-1.53382e-06
6.96476e-08
-1.56776e-06
6.97696e-08
-1.60173e-06
6.98579e-08
-1.63571e-06
6.99097e-08
-1.66967e-06
6.99221e-08
-1.7036e-06
6.98924e-08
-1.73748e-06
6.98182e-08
-1.77128e-06
6.96968e-08
-1.80498e-06
6.95256e-08
-1.83855e-06
6.93022e-08
-1.87196e-06
6.9024e-08
-1.90519e-06
6.86886e-08
-1.93822e-06
6.82936e-08
-1.971e-06
6.78365e-08
-2.0035e-06
6.73148e-08
-2.0357e-06
6.67259e-08
-2.06756e-06
6.6067e-08
-2.09904e-06
6.53354e-08
-2.13011e-06
6.45281e-08
-2.16073e-06
6.3642e-08
-2.19086e-06
6.2674e-08
-2.22046e-06
6.16207e-08
-2.24948e-06
6.04786e-08
-2.27787e-06
5.9244e-08
-2.3056e-06
5.79131e-08
-2.33261e-06
5.64819e-08
-2.35885e-06
5.49464e-08
-2.38426e-06
5.33025e-08
-2.4088e-06
5.15463e-08
-2.4324e-06
4.96738e-08
-2.45501e-06
4.76814e-08
-2.47656e-06
4.55657e-08
-2.49699e-06
4.3324e-08
-2.51623e-06
4.09541e-08
-2.53424e-06
3.84544e-08
-2.55093e-06
3.5824e-08
-2.56624e-06
3.30632e-08
-2.58011e-06
3.01734e-08
-2.59248e-06
2.71572e-08
-2.60328e-06
2.40184e-08
-2.61247e-06
2.07618e-08
-2.61997e-06
1.73932e-08
-2.62574e-06
1.39189e-08
-2.62972e-06
1.03458e-08
-2.63189e-06
6.68019e-09
-2.63217e-06
2.92682e-09
-2.63055e-06
-9.08272e-10
-2.62701e-06
-4.78899e-09
-2.62154e-06
-8.68256e-09
-2.61414e-06
-1.25901e-08
-2.60479e-06
-1.65116e-08
-2.5935e-06
-2.04449e-08
-2.58025e-06
-2.43866e-08
-2.56505e-06
-2.8333e-08
-2.5479e-06
-3.22802e-08
-2.52879e-06
-3.62238e-08
-2.50774e-06
-4.01591e-08
-2.48474e-06
-4.40809e-08
-2.45982e-06
-4.79836e-08
-2.43297e-06
-5.18613e-08
-2.40423e-06
-5.57078e-08
-2.3736e-06
-5.95164e-08
-2.34112e-06
-6.32802e-08
-2.3068e-06
-6.69914e-08
-2.27068e-06
-7.06419e-08
-2.23279e-06
-7.42239e-08
-2.19317e-06
-7.77296e-08
-2.15187e-06
-8.11514e-08
-2.10892e-06
-8.44818e-08
-2.06439e-06
-8.77136e-08
-2.01832e-06
-9.084e-08
-1.97076e-06
-9.3854e-08
-1.92179e-06
-9.67477e-08
-1.87145e-06
-9.95128e-08
-1.81983e-06
-1.02142e-07
-1.767e-06
-1.04628e-07
-1.71302e-06
-1.06966e-07
-1.65797e-06
-1.09151e-07
-1.60194e-06
-1.11181e-07
-1.54499e-06
-1.1305e-07
-1.48722e-06
-1.14752e-07
-1.42872e-06
-1.16283e-07
-1.36955e-06
-1.1764e-07
-1.30983e-06
-1.18825e-07
-1.24962e-06
-1.1984e-07
-1.18901e-06
-1.20684e-07
-1.12809e-06
-1.21349e-07
-1.06695e-06
-1.21838e-07
-1.00567e-06
-1.22161e-07
-9.44335e-07
-1.22325e-07
-8.83017e-07
-1.22323e-07
-8.21802e-07
-1.22153e-07
-7.60762e-07
-1.2184e-07
-6.99962e-07
-1.21394e-07
-6.39475e-07
-1.20797e-07
-5.79369e-07
-1.20062e-07
-5.19691e-07
-1.19229e-07
-4.60499e-07
-1.18281e-07
-4.01848e-07
-1.17211e-07
-3.43771e-07
-1.16085e-07
-2.86307e-07
-1.14858e-07
-2.29492e-07
-1.13565e-07
-1.73337e-07
-1.12261e-07
-1.17866e-07
-1.10857e-07
-6.31143e-08
-1.09466e-07
-8.98584e-09
-1.08113e-07
4.43892e-08
-1.06592e-07
9.67975e-08
-1.04967e-07
1.48324e-07
-1.03438e-07
1.99034e-07
-1.01845e-07
2.48967e-07
-9.99349e-08
2.9815e-07
-9.79875e-08
3.46601e-07
-9.62692e-08
3.94362e-07
-9.47479e-08
4.415e-07
-9.33919e-08
4.88076e-07
-9.21703e-08
5.34132e-07
-9.10485e-08
5.79692e-07
-8.99746e-08
6.24732e-07
-8.88655e-08
6.69162e-07
-8.75649e-08
7.12753e-07
-8.5803e-08
7.55059e-07
-8.29821e-08
7.95149e-07
-7.81615e-08
8.31611e-07
-6.85299e-08
8.61047e-07
-5.08522e-08
-9.96573e-09
8.86191e-07
-5.483e-09
-1.14384e-08
-1.74583e-08
1.5828e-09
-3.19336e-08
1.4451e-08
-4.76535e-08
2.55498e-08
-6.4481e-08
3.53156e-08
-8.24442e-08
4.38828e-08
-1.01593e-07
5.13069e-08
-1.21959e-07
5.76602e-08
-1.43534e-07
6.30612e-08
-1.66224e-07
6.76643e-08
-1.89888e-07
7.1615e-08
-2.14378e-07
7.50289e-08
-2.39561e-07
7.79903e-08
-2.65325e-07
8.05591e-08
-2.91576e-07
8.27803e-08
-3.18238e-07
8.46901e-08
-3.45247e-07
8.63209e-08
-3.72549e-07
8.77025e-08
-4.00097e-07
8.88637e-08
-4.27853e-07
8.98321e-08
-4.55785e-07
9.06338e-08
-4.83865e-07
9.12935e-08
-5.12073e-07
9.18344e-08
-5.4039e-07
9.22775e-08
-5.68803e-07
9.26419e-08
-5.97303e-07
9.29447e-08
-6.25884e-07
9.32011e-08
-6.54542e-07
9.34243e-08
-6.83276e-07
9.36254e-08
-7.12087e-07
9.3814e-08
-7.40978e-07
9.39981e-08
-7.69953e-07
9.41841e-08
-7.99018e-07
9.4377e-08
-8.28179e-07
9.45807e-08
-8.57443e-07
9.47983e-08
-8.86818e-07
9.50316e-08
-9.16311e-07
9.52819e-08
-9.45929e-07
9.555e-08
-9.7568e-07
9.5836e-08
-1.00557e-06
9.614e-08
-1.03561e-06
9.64616e-08
-1.06579e-06
9.68009e-08
-1.09612e-06
9.71577e-08
-1.12659e-06
9.7531e-08
-1.1572e-06
9.79171e-08
-1.18794e-06
9.83102e-08
-1.21879e-06
9.87043e-08
-1.24977e-06
9.9093e-08
-1.28086e-06
9.94707e-08
-1.31205e-06
9.98316e-08
-1.34334e-06
1.0017e-07
-1.37471e-06
1.00482e-07
-1.40615e-06
1.00761e-07
-1.43766e-06
1.01004e-07
-1.46922e-06
1.01205e-07
-1.50081e-06
1.01361e-07
-1.53242e-06
1.01466e-07
-1.56403e-06
1.01517e-07
-1.59562e-06
1.0151e-07
-1.62717e-06
1.01442e-07
-1.65866e-06
1.01307e-07
-1.69006e-06
1.01103e-07
-1.72136e-06
1.00827e-07
-1.75253e-06
1.00473e-07
-1.78355e-06
1.0004e-07
-1.81438e-06
9.95227e-08
-1.84501e-06
9.89184e-08
-1.8754e-06
9.82235e-08
-1.90551e-06
9.74342e-08
-1.93534e-06
9.65468e-08
-1.96483e-06
9.55573e-08
-1.99395e-06
9.44616e-08
-2.02268e-06
9.32556e-08
-2.05097e-06
9.19346e-08
-2.07879e-06
9.04941e-08
-2.1061e-06
8.89289e-08
-2.13286e-06
8.72339e-08
-2.15902e-06
8.54036e-08
-2.18454e-06
8.34321e-08
-2.20937e-06
8.13135e-08
-2.23346e-06
7.90417e-08
-2.25677e-06
7.66106e-08
-2.27924e-06
7.40139e-08
-2.30081e-06
7.12457e-08
-2.32143e-06
6.83002e-08
-2.34104e-06
6.51724e-08
-2.35957e-06
6.18576e-08
-2.37697e-06
5.83523e-08
-2.39317e-06
5.46538e-08
-2.4081e-06
5.07606e-08
-2.42171e-06
4.66729e-08
-2.43393e-06
4.23924e-08
-2.4447e-06
3.79228e-08
-2.45395e-06
3.32695e-08
-2.46163e-06
2.84395e-08
-2.46768e-06
2.34414e-08
-2.47204e-06
1.82848e-08
-2.47468e-06
1.29806e-08
-2.47553e-06
7.53796e-09
-2.47457e-06
1.96487e-09
-2.47177e-06
-3.70967e-09
-2.46712e-06
-9.43746e-09
-2.46061e-06
-1.51925e-08
-2.45223e-06
-2.09711e-08
-2.44197e-06
-2.67707e-08
-2.42983e-06
-3.25876e-08
-2.4158e-06
-3.84169e-08
-2.39988e-06
-4.4253e-08
-2.38207e-06
-5.009e-08
-2.36237e-06
-5.59212e-08
-2.34079e-06
-6.17395e-08
-2.31734e-06
-6.75372e-08
-2.29201e-06
-7.33059e-08
-2.26484e-06
-7.90369e-08
-2.23582e-06
-8.47209e-08
-2.20499e-06
-9.03482e-08
-2.17236e-06
-9.5908e-08
-2.13797e-06
-1.01389e-07
-2.10183e-06
-1.0678e-07
-2.06399e-06
-1.12067e-07
-2.02447e-06
-1.17241e-07
-1.98334e-06
-1.22288e-07
-1.94062e-06
-1.27199e-07
-1.89637e-06
-1.31962e-07
-1.85065e-06
-1.36567e-07
-1.8035e-06
-1.41004e-07
-1.75498e-06
-1.45262e-07
-1.70517e-06
-1.49329e-07
-1.65412e-06
-1.53192e-07
-1.6019e-06
-1.56841e-07
-1.5486e-06
-1.6027e-07
-1.49428e-06
-1.63471e-07
-1.43902e-06
-1.66439e-07
-1.3829e-06
-1.69169e-07
-1.326e-06
-1.71652e-07
-1.26841e-06
-1.73879e-07
-1.2102e-06
-1.75847e-07
-1.15147e-06
-1.77558e-07
-1.09229e-06
-1.79019e-07
-1.03275e-06
-1.80225e-07
-9.72929e-07
-1.81167e-07
-9.12919e-07
-1.81847e-07
-8.52799e-07
-1.82282e-07
-7.92641e-07
-1.82482e-07
-7.32526e-07
-1.82437e-07
-6.72533e-07
-1.82146e-07
-6.12731e-07
-1.81642e-07
-5.53182e-07
-1.80943e-07
-4.93954e-07
-1.80025e-07
-4.35111e-07
-1.78905e-07
-3.76702e-07
-1.77639e-07
-3.18775e-07
-1.76208e-07
-2.61384e-07
-1.74602e-07
-2.0456e-07
-1.72908e-07
-1.48331e-07
-1.71087e-07
-9.2739e-08
-1.69158e-07
-3.77948e-08
-1.67206e-07
1.65208e-08
-1.65172e-07
7.00652e-08
-1.63011e-07
1.22761e-07
-1.60808e-07
1.74685e-07
-1.58517e-07
2.25836e-07
-1.56117e-07
2.76194e-07
-1.53795e-07
3.25811e-07
-1.51462e-07
3.74811e-07
-1.48934e-07
4.23224e-07
-1.46401e-07
4.71036e-07
-1.44081e-07
5.18268e-07
-1.4198e-07
5.64965e-07
-1.40089e-07
6.11173e-07
-1.38378e-07
6.56928e-07
-1.36804e-07
7.02247e-07
-1.35294e-07
7.47111e-07
-1.33729e-07
7.9144e-07
-1.31894e-07
8.35052e-07
-1.29414e-07
8.77621e-07
-1.25551e-07
9.18576e-07
-1.19116e-07
9.5735e-07
-1.07303e-07
9.93406e-07
-8.69071e-08
-4.78899e-08
1.03133e-06
-1.36314e-08
2.19257e-09
-3.12258e-08
1.91776e-08
-4.94038e-08
3.26289e-08
-6.7901e-08
4.40471e-08
-8.67406e-08
5.41552e-08
-1.0602e-07
6.31618e-08
-1.25848e-07
7.11352e-08
-1.46313e-07
7.81247e-08
-1.67454e-07
8.42029e-08
-1.89258e-07
8.94675e-08
-2.11666e-07
9.40237e-08
-2.34606e-07
9.79688e-08
-2.58001e-07
1.01385e-07
-2.81782e-07
1.0434e-07
-3.05889e-07
1.06888e-07
-3.30275e-07
1.09076e-07
-3.54901e-07
1.10946e-07
-3.79733e-07
1.12535e-07
-4.04746e-07
1.13877e-07
-4.2992e-07
1.15005e-07
-4.55235e-07
1.1595e-07
-4.8068e-07
1.16739e-07
-5.06244e-07
1.17398e-07
-5.31918e-07
1.17952e-07
-5.57697e-07
1.18421e-07
-5.83578e-07
1.18826e-07
-6.09559e-07
1.19182e-07
-6.3564e-07
1.19505e-07
-6.61823e-07
1.19808e-07
-6.8811e-07
1.20101e-07
-7.14504e-07
1.20393e-07
-7.41011e-07
1.20691e-07
-7.67634e-07
1.21001e-07
-7.9438e-07
1.21327e-07
-8.21254e-07
1.21672e-07
-8.48261e-07
1.22039e-07
-8.75407e-07
1.22427e-07
-9.02696e-07
1.22839e-07
-9.30132e-07
1.23272e-07
-9.57718e-07
1.23726e-07
-9.85456e-07
1.242e-07
-1.01335e-06
1.24691e-07
-1.04138e-06
1.25196e-07
-1.06957e-06
1.25714e-07
-1.09789e-06
1.26238e-07
-1.12634e-06
1.26762e-07
-1.15492e-06
1.27282e-07
-1.18361e-06
1.27789e-07
-1.21242e-06
1.28277e-07
-1.24133e-06
1.28741e-07
-1.27033e-06
1.29173e-07
-1.29942e-06
1.29567e-07
-1.32857e-06
1.29918e-07
-1.35779e-06
1.30219e-07
-1.38705e-06
1.30465e-07
-1.41634e-06
1.3065e-07
-1.44564e-06
1.30769e-07
-1.47494e-06
1.30817e-07
-1.50422e-06
1.30789e-07
-1.53346e-06
1.30679e-07
-1.56263e-06
1.30483e-07
-1.59173e-06
1.30197e-07
-1.62072e-06
1.29815e-07
-1.64958e-06
1.29334e-07
-1.67829e-06
1.28748e-07
-1.70682e-06
1.28053e-07
-1.73514e-06
1.27245e-07
-1.76324e-06
1.26319e-07
-1.79108e-06
1.25271e-07
-1.81862e-06
1.24096e-07
-1.84586e-06
1.22788e-07
-1.87274e-06
1.21343e-07
-1.89924e-06
1.19755e-07
-1.92532e-06
1.18018e-07
-1.95095e-06
1.16126e-07
-1.9761e-06
1.14073e-07
-2.00071e-06
1.11851e-07
-2.02476e-06
1.09454e-07
-2.0482e-06
1.06873e-07
-2.07099e-06
1.04101e-07
-2.09308e-06
1.0113e-07
-2.11442e-06
9.79502e-08
-2.13496e-06
9.45545e-08
-2.15465e-06
9.09341e-08
-2.17343e-06
8.70813e-08
-2.19125e-06
8.29888e-08
-2.20804e-06
7.86501e-08
-2.22375e-06
7.406e-08
-2.23831e-06
6.92143e-08
-2.25166e-06
6.41107e-08
-2.26373e-06
5.8749e-08
-2.27447e-06
5.31312e-08
-2.28381e-06
4.72617e-08
-2.29169e-06
4.11473e-08
-2.29805e-06
3.47974e-08
-2.30283e-06
2.82233e-08
-2.30598e-06
2.14386e-08
-2.30746e-06
1.44582e-08
-2.30722e-06
7.29629e-09
-2.30522e-06
-3.61142e-11
-2.30144e-06
-7.4847e-09
-2.29589e-06
-1.49894e-08
-2.28855e-06
-2.2536e-08
-2.2794e-06
-3.01162e-08
-2.26845e-06
-3.77249e-08
-2.25568e-06
-4.53564e-08
-2.24109e-06
-5.30042e-08
-2.22468e-06
-6.0661e-08
-2.20646e-06
-6.83187e-08
-2.18641e-06