/*--------------------------------*- C++ -*----------------------------------*\
| =========                 |                                                 |
| \\      /  F ield         | OpenFOAM: The Open Source CFD Toolbox           |
|  \\    /   O peration     | Version:  2.2.x                                 |
|   \\  /    A nd           | Web:      www.OpenFOAM.org                      |
|    \\/     M anipulation  |                                                 |
\*---------------------------------------------------------------------------*/
FoamFile
{
    version     2.0;
    format      ascii;
    class       volVectorField;
    location    "750";
    object      U;
}
// * * * * * * * * * * * * * * * * * * * * * * * * * * * * * * * * * * * * * //

dimensions      [0 1 -1 0 0 0 0];

internalField   nonuniform List<vector> 
12225
(
(9.83972 -1.23842 0)
(9.73872 -0.73149 0)
(9.53698 -0.467335 0)
(9.32318 -0.307408 0)
(9.12438 -0.20596 0)
(8.94079 -0.139599 0)
(8.77069 -0.0949549 0)
(8.61331 -0.0642657 0)
(8.46789 -0.0428297 0)
(8.3335 -0.0276707 0)
(8.2092 -0.0168471 0)
(8.09414 -0.00906458 0)
(7.98757 -0.00344298 0)
(7.88877 0.00063123 0)
(7.79704 0.00361742 0)
(7.71151 0.00604678 0)
(7.6263 0.00948396 0)
(7.56103 -0.0194338 0)
(10.0335 0.447389 0)
(10.0226 0.42693 0)
(9.98834 0.340233 0)
(9.94293 0.270976 0)
(9.89657 0.2178 0)
(9.84853 0.17721 0)
(9.79809 0.146655 0)
(9.74597 0.123665 0)
(9.69303 0.106217 0)
(9.63995 0.0928198 0)
(9.58723 0.0824029 0)
(9.53528 0.0741936 0)
(9.48444 0.0676345 0)
(9.43494 0.0623332 0)
(9.38695 0.05806 0)
(9.34065 0.0549451 0)
(9.29755 0.0541811 0)
(9.26301 0.0680793 0)
(9.9929 0.0267776 0)
(10.0022 -0.00877223 0)
(10.0178 -0.0275858 0)
(10.0247 -0.0224536 0)
(10.0278 -0.0110945 0)
(10.0281 0.000219015 0)
(10.0255 0.0102946 0)
(10.0204 0.0188254 0)
(10.0135 0.0257782 0)
(10.0054 0.0312967 0)
(9.99626 0.0355922 0)
(9.98643 0.0388753 0)
(9.9761 0.0413353 0)
(9.96547 0.0431457 0)
(9.95473 0.0444982 0)
(9.94426 0.0456824 0)
(9.93518 0.046853 0)
(9.92776 0.04489 0)
(9.99998 0.0196747 0)
(10.0123 0.0433507 0)
(10.0308 0.0556686 0)
(10.0411 0.0652703 0)
(10.0483 0.0706339 0)
(10.0543 0.0723623 0)
(10.0591 0.072134 0)
(10.0629 0.07098 0)
(10.0658 0.069391 0)
(10.0683 0.0676225 0)
(10.0703 0.0658149 0)
(10.0719 0.0640389 0)
(10.0733 0.0623238 0)
(10.0745 0.0606829 0)
(10.0757 0.0591312 0)
(10.0771 0.0576712 0)
(10.0795 0.0560394 0)
(10.0828 0.0525961 0)
(10.0023 0.0186711 0)
(10.0144 0.0407952 0)
(10.0302 0.0467991 0)
(10.0404 0.0491733 0)
(10.0485 0.0505687 0)
(10.056 0.051089 0)
(10.0629 0.0512498 0)
(10.069 0.0513479 0)
(10.0746 0.0514244 0)
(10.0798 0.0514525 0)
(10.0847 0.0514063 0)
(10.0893 0.0512655 0)
(10.0938 0.0510128 0)
(10.0981 0.0506324 0)
(10.1023 0.0501011 0)
(10.1068 0.0493389 0)
(10.1117 0.0480368 0)
(10.1168 0.045224 0)
(10.0025 0.0189135 0)
(10.0131 0.0369796 0)
(10.0269 0.0431882 0)
(10.0373 0.0464941 0)
(10.0459 0.0491952 0)
(10.0539 0.0509851 0)
(10.0613 0.0520561 0)
(10.0681 0.0526816 0)
(10.0744 0.0529857 0)
(10.0804 0.0530254 0)
(10.086 0.0528415 0)
(10.0915 0.0524627 0)
(10.0968 0.0519032 0)
(10.102 0.0511607 0)
(10.1072 0.0502051 0)
(10.1124 0.0489411 0)
(10.1178 0.0471314 0)
(10.1232 0.0443236 0)
(10.0022 0.0166135 0)
(10.0111 0.0317065 0)
(10.0232 0.0386715 0)
(10.0334 0.0426306 0)
(10.042 0.0455528 0)
(10.0502 0.0474287 0)
(10.0577 0.0484926 0)
(10.0647 0.0490525 0)
(10.0713 0.0492754 0)
(10.0775 0.0492407 0)
(10.0835 0.0489937 0)
(10.0893 0.0485595 0)
(10.0949 0.0479442 0)
(10.1004 0.0471342 0)
(10.1058 0.0460871 0)
(10.1112 0.0447119 0)
(10.1165 0.042845 0)
(10.1217 0.0402808 0)
(10.0019 0.0146598 0)
(10.0095 0.0280499 0)
(10.0202 0.0353167 0)
(10.0299 0.0395442 0)
(10.0384 0.0425201 0)
(10.0464 0.0444681 0)
(10.054 0.0456234 0)
(10.061 0.0462614 0)
(10.0677 0.0465427 0)
(10.074 0.0465463 0)
(10.0801 0.0463168 0)
(10.086 0.045878 0)
(10.0917 0.0452355 0)
(10.0973 0.0443753 0)
(10.1027 0.0432598 0)
(10.1081 0.0418192 0)
(10.1132 0.0399515 0)
(10.1182 0.0375819 0)
(10.0017 0.0130733 0)
(10.0082 0.0250863 0)
(10.0178 0.0322492 0)
(10.0268 0.0365727 0)
(10.0351 0.0395767 0)
(10.0429 0.0415756 0)
(10.0504 0.0427957 0)
(10.0574 0.0434829 0)
(10.0641 0.0437917 0)
(10.0705 0.0438037 0)
(10.0766 0.0435662 0)
(10.0825 0.043105 0)
(10.0882 0.0424274 0)
(10.0938 0.0415226 0)
(10.0992 0.0403609 0)
(10.1044 0.0388923 0)
(10.1094 0.0370559 0)
(10.1142 0.0348442 0)
(10.0015 0.0115163 0)
(10.0071 0.0221283 0)
(10.0154 0.0289735 0)
(10.0237 0.0332933 0)
(10.0316 0.0362885 0)
(10.0392 0.0383087 0)
(10.0464 0.0395706 0)
(10.0534 0.0402918 0)
(10.06 0.0406186 0)
(10.0663 0.0406345 0)
(10.0724 0.0403886 0)
(10.0783 0.0399085 0)
(10.084 0.0392042 0)
(10.0895 0.03827 0)
(10.0948 0.0370867 0)
(10.0999 0.035625 0)
(10.1047 0.0338567 0)
(10.1094 0.0318133 0)
(10.0013 0.00996515 0)
(10.006 0.0191745 0)
(10.0131 0.0255392 0)
(10.0207 0.0297363 0)
(10.0281 0.0326537 0)
(10.0353 0.0346417 0)
(10.0423 0.035905 0)
(10.049 0.0366327 0)
(10.0555 0.0369598 0)
(10.0617 0.0369685 0)
(10.0677 0.0367088 0)
(10.0735 0.0362097 0)
(10.0791 0.0354848 0)
(10.0845 0.0345351 0)
(10.0897 0.0333529 0)
(10.0946 0.0319273 0)
(10.0992 0.0302545 0)
(10.1037 0.0283835 0)
(10.0011 0.00843228 0)
(10.005 0.0162626 0)
(10.0111 0.0219937 0)
(10.0179 0.0259326 0)
(10.0248 0.0286898 0)
(10.0315 0.0305832 0)
(10.0382 0.0318002 0)
(10.0446 0.032501 0)
(10.0509 0.0328061 0)
(10.0569 0.0327937 0)
(10.0627 0.0325131 0)
(10.0684 0.0319952 0)
(10.0738 0.0312575 0)
(10.079 0.0303082 0)
(10.084 0.0291502 0)
(10.0887 0.0277872 0)
(10.0931 0.026231 0)
(10.0974 0.024535 0)
(10.0009 0.00693307 0)
(10.0042 0.0134118 0)
(10.0094 0.0183722 0)
(10.0154 0.0219106 0)
(10.0216 0.0244136 0)
(10.0279 0.0261406 0)
(10.0342 0.0272546 0)
(10.0403 0.0278878 0)
(10.0463 0.0281433 0)
(10.0521 0.0280925 0)
(10.0577 0.027783 0)
(10.0631 0.0272466 0)
(10.0683 0.0265044 0)
(10.0733 0.0255707 0)
(10.0781 0.0244572 0)
(10.0826 0.0231769 0)
(10.0868 0.0217498 0)
(10.0909 0.0202266 0)
(10.0008 0.00547381 0)
(10.0035 0.0106231 0)
(10.0079 0.0146998 0)
(10.0132 0.0176985 0)
(10.0189 0.019842 0)
(10.0246 0.0213206 0)
(10.0305 0.0222662 0)
(10.0363 0.0227838 0)
(10.0419 0.0229573 0)
(10.0474 0.0228485 0)
(10.0528 0.0225012 0)
(10.058 0.0219469 0)
(10.0629 0.0212086 0)
(10.0677 0.0203049 0)
(10.0722 0.0192525 0)
(10.0765 0.0180694 0)
(10.0805 0.0167781 0)
(10.0844 0.015423 0)
(10.0006 0.00405001 0)
(10.0029 0.00788135 0)
(10.0067 0.0109831 0)
(10.0114 0.0133126 0)
(10.0165 0.014985 0)
(10.0218 0.0161249 0)
(10.0272 0.016829 0)
(10.0326 0.0171757 0)
(10.038 0.0172289 0)
(10.0432 0.0170385 0)
(10.0483 0.0166419 0)
(10.0532 0.0160679 0)
(10.0579 0.0153391 0)
(10.0624 0.0144754 0)
(10.0667 0.013495 0)
(10.0708 0.0124167 0)
(10.0746 0.0112617 0)
(10.0783 0.0100673 0)
(10.0006 0.00264413 0)
(10.0025 0.00515078 0)
(10.0058 0.00719767 0)
(10.0099 0.00873966 0)
(10.0145 0.00982803 0)
(10.0194 0.0105337 0)
(10.0245 0.0109181 0)
(10.0295 0.0110333 0)
(10.0346 0.0109229 0)
(10.0395 0.0106228 0)
(10.0443 0.0101613 0)
(10.049 0.00956171 0)
(10.0535 0.00884362 0)
(10.0578 0.0080246 0)
(10.0618 0.00712129 0)
(10.0657 0.0061503 0)
(10.0693 0.00512936 0)
(10.0729 0.00408829 0)
(10.0005 0.00122381 0)
(10.0022 0.00237131 0)
(10.0052 0.00328257 0)
(10.0089 0.0039272 0)
(10.0131 0.00432224 0)
(10.0177 0.00449797 0)
(10.0224 0.0044834 0)
(10.0272 0.00430443 0)
(10.032 0.00398405 0)
(10.0366 0.00354206 0)
(10.0412 0.0029952 0)
(10.0457 0.00235819 0)
(10.0499 0.00164428 0)
(10.054 0.000865956 0)
(10.0579 3.52939e-05 0)
(10.0616 -0.000835681 0)
(10.0651 -0.00173423 0)
(10.0685 -0.00263761 0)
(10.0005 -0.000175091 0)
(10.0021 -0.000378648 0)
(10.0049 -0.000624558 0)
(10.0084 -0.000920145 0)
(10.0125 -0.00126669 0)
(10.0168 -0.00166581 0)
(10.0214 -0.00211819 0)
(10.026 -0.0026226 0)
(10.0306 -0.00317657 0)
(10.0351 -0.0037769 0)
(10.0395 -0.00441973 0)
(10.0438 -0.00510072 0)
(10.0479 -0.00581494 0)
(10.0519 -0.00655687 0)
(10.0556 -0.0073205 0)
(10.0592 -0.00809937 0)
(10.0626 -0.00888604 0)
(10.0659 -0.00966459 0)
(10.0005 -0.00146842 0)
(10.0021 -0.0029299 0)
(10.0049 -0.00426056 0)
(10.0085 -0.00543626 0)
(10.0125 -0.00647316 0)
(10.0169 -0.00740497 0)
(10.0214 -0.00826118 0)
(10.026 -0.00906376 0)
(10.0305 -0.00982975 0)
(10.035 -0.0105724 0)
(10.0393 -0.011301 0)
(10.0436 -0.0120217 0)
(10.0476 -0.0127381 0)
(10.0515 -0.0134517 0)
(10.0552 -0.0141625 0)
(10.0587 -0.0148693 0)
(10.0621 -0.0155695 0)
(10.0653 -0.0162528 0)
(10.0005 -0.00265634 0)
(10.0022 -0.00528749 0)
(10.0052 -0.00761707 0)
(10.009 -0.00957552 0)
(10.0132 -0.0112067 0)
(10.0177 -0.0125876 0)
(10.0223 -0.0137772 0)
(10.0269 -0.0148193 0)
(10.0315 -0.0157497 0)
(10.036 -0.0165969 0)
(10.0404 -0.0173823 0)
(10.0446 -0.018121 0)
(10.0486 -0.0188243 0)
(10.0525 -0.0194999 0)
(10.0562 -0.020153 0)
(10.0597 -0.0207871 0)
(10.063 -0.0214033 0)
(10.0662 -0.0219952 0)
(10.0005 -0.00378274 0)
(10.0024 -0.00756545 0)
(10.0057 -0.010851 0)
(10.0098 -0.0135031 0)
(10.0143 -0.0156348 0)
(10.019 -0.0173867 0)
(10.0238 -0.018846 0)
(10.0286 -0.020076 0)
(10.0333 -0.0211317 0)
(10.0379 -0.0220565 0)
(10.0423 -0.0228821 0)
(10.0465 -0.0236314 0)
(10.0506 -0.0243218 0)
(10.0545 -0.024966 0)
(10.0582 -0.0255739 0)
(10.0617 -0.026153 0)
(10.065 -0.0267086 0)
(10.0682 -0.0272398 0)
(10.0005 -0.0048503 0)
(10.0026 -0.00984006 0)
(10.0063 -0.0140646 0)
(10.0109 -0.0173016 0)
(10.0158 -0.0198221 0)
(10.0208 -0.0218521 0)
(10.0259 -0.0234989 0)
(10.0308 -0.0248445 0)
(10.0357 -0.0259631 0)
(10.0403 -0.0269113 0)
(10.0448 -0.0277293 0)
(10.0491 -0.0284468 0)
(10.0532 -0.0290862 0)
(10.0571 -0.0296652 0)
(10.0608 -0.0301974 0)
(10.0643 -0.0306941 0)
(10.0675 -0.0311634 0)
(10.0707 -0.0316064 0)
(10.0005 -0.00582575 0)
(10.0027 -0.0121881 0)
(10.0071 -0.0173576 0)
(10.0124 -0.0210813 0)
(10.0177 -0.023924 0)
(10.023 -0.0261872 0)
(10.0283 -0.0279854 0)
(10.0334 -0.0294277 0)
(10.0384 -0.0306106 0)
(10.0431 -0.031599 0)
(10.0477 -0.0324361 0)
(10.052 -0.0331534 0)
(10.0561 -0.0337753 0)
(10.06 -0.0343213 0)
(10.0637 -0.0348078 0)
(10.0672 -0.0352499 0)
(10.0704 -0.0356625 0)
(10.0736 -0.0360586 0)
(10.0002 -0.00663394 0)
(10.0027 -0.0146581 0)
(10.0079 -0.020567 0)
(10.0139 -0.0245012 0)
(10.0196 -0.0275195 0)
(10.0252 -0.0298837 0)
(10.0307 -0.0316751 0)
(10.0359 -0.0330477 0)
(10.041 -0.0341349 0)
(10.0458 -0.0350176 0)
(10.0503 -0.0357466 0)
(10.0546 -0.0363579 0)
(10.0587 -0.0368778 0)
(10.0626 -0.0373258 0)
(10.0662 -0.0377176 0)
(10.0696 -0.0380678 0)
(10.0728 -0.0383909 0)
(10.0758 -0.0386982 0)
(9.99982 -0.0072285 0)
(10.0024 -0.0181404 0)
(10.0087 -0.0246969 0)
(10.0154 -0.0286208 0)
(10.0214 -0.0318977 0)
(10.0271 -0.0346046 0)
(10.0328 -0.036696 0)
(10.0381 -0.0383123 0)
(10.0431 -0.0395792 0)
(10.0479 -0.0405721 0)
(10.0524 -0.041346 0)
(10.0566 -0.0419457 0)
(10.0606 -0.0424067 0)
(10.0643 -0.0427565 0)
(10.0678 -0.0430177 0)
(10.0711 -0.0432119 0)
(10.0741 -0.0433677 0)
(10.0771 -0.0435295 0)
(9.99841 -0.00501965 0)
(10.0007 -0.0202896 0)
(10.0088 -0.0271054 0)
(10.016 -0.0298118 0)
(10.0219 -0.0317571 0)
(10.0276 -0.0332582 0)
(10.0332 -0.0344541 0)
(10.0385 -0.0355268 0)
(10.0435 -0.0365363 0)
(10.0481 -0.0374785 0)
(10.0525 -0.0383437 0)
(10.0565 -0.0391273 0)
(10.0603 -0.0398266 0)
(10.0639 -0.0404399 0)
(10.0672 -0.0409663 0)
(10.0702 -0.0414076 0)
(10.0729 -0.0417749 0)
(10.0753 -0.0420946 0)
(9.99479 -0.00318731 0)
(9.99583 -0.0256797 0)
(10.0072 -0.0394665 0)
(10.0157 -0.0487321 0)
(10.0218 -0.0546392 0)
(10.0272 -0.0576148 0)
(10.0323 -0.0587609 0)
(10.0368 -0.0589295 0)
(10.0409 -0.0585659 0)
(10.0446 -0.0579084 0)
(10.0481 -0.0571027 0)
(10.0512 -0.056238 0)
(10.0541 -0.0553643 0)
(10.0567 -0.0545052 0)
(10.059 -0.0536658 0)
(10.0611 -0.0528376 0)
(10.0629 -0.0520147 0)
(10.0645 -0.0512057 0)
(9.98519 0.00576672 0)
(9.98187 0.0248665 0)
(9.99411 0.0365105 0)
(10.0037 0.0321384 0)
(10.0109 0.0223053 0)
(10.0167 0.0122843 0)
(10.0211 0.00312677 0)
(10.024 -0.00497263 0)
(10.0259 -0.0119445 0)
(10.0269 -0.0178307 0)
(10.0272 -0.0227441 0)
(10.0269 -0.0268164 0)
(10.0261 -0.0301712 0)
(10.0248 -0.0329144 0)
(10.0232 -0.0351284 0)
(10.0213 -0.0368635 0)
(10.0191 -0.0381355 0)
(10.0161 -0.0388393 0)
(10.0137 -0.317342 0)
(10.0102 -0.326326 0)
(9.99895 -0.271524 0)
(9.98283 -0.224891 0)
(9.96835 -0.188168 0)
(9.95437 -0.158842 0)
(9.93927 -0.135772 0)
(9.92274 -0.117762 0)
(9.905 -0.103641 0)
(9.88628 -0.0924769 0)
(9.86675 -0.083575 0)
(9.84663 -0.0764143 0)
(9.82609 -0.0706002 0)
(9.80532 -0.0658298 0)
(9.78448 -0.0618625 0)
(9.76372 -0.0584865 0)
(9.74324 -0.0554731 0)
(9.72239 -0.0522065 0)
(9.95412 0.913092 0)
(9.95406 0.561002 0)
(9.86626 0.375415 0)
(9.7529 0.258525 0)
(9.63884 0.180489 0)
(9.52774 0.126934 0)
(9.41987 0.0891673 0)
(9.31602 0.0619603 0)
(9.21682 0.0420725 0)
(9.12254 0.0273829 0)
(9.03316 0.0164479 0)
(8.94862 0.00826102 0)
(8.86875 0.00210894 0)
(8.79339 -0.00252082 0)
(8.72235 -0.00599824 0)
(8.65544 -0.00858365 0)
(8.59273 -0.010422 0)
(8.53228 -0.0113578 0)
(0.00603069 -0.0147938 0)
(0.0164697 -0.0172854 0)
(0.0246376 -0.0130628 0)
(0.0285809 -0.00652209 0)
(0.0266793 0.000697992 0)
(0.0199051 0.00753194 0)
(0.00934048 0.0133544 -4.47369e-19)
(-0.00527024 0.0179119 4.32656e-19)
(-0.0218938 0.0206897 0)
(-0.0404002 0.0225485 3.26995e-19)
(-0.0605062 0.0240313 0)
(-0.0819954 0.0253243 0)
(-0.104727 0.0264682 0)
(-0.128578 0.0274633 -2.03292e-19)
(-0.153426 0.0283062 0)
(-0.179156 0.0289997 0)
(-0.205654 0.0295526 1.54475e-19)
(-0.232815 0.0299776 0)
(-0.260545 0.0302892 0)
(-0.288758 0.0305024 0)
(-0.317378 0.0306314 -1.15639e-19)
(-0.34634 0.0306897 0)
(-0.375588 0.0306893 -1.02548e-19)
(-0.405075 0.0306412 0)
(-0.434763 0.0305548 0)
(-0.464619 0.030438 -8.76622e-20)
(-0.494617 0.0302979 0)
(-0.524739 0.0301401 7.99685e-20)
(-0.554968 0.0299691 0)
(-0.585294 0.0297888 -7.35607e-20)
(-0.615709 0.0296018 0)
(-0.646208 0.0294101 0)
(-0.676788 0.029215 0)
(-0.707447 0.0290173 0)
(-0.738186 0.0288173 0)
(-0.769006 0.0286148 5.95163e-20)
(-0.799906 0.0284098 0)
(-0.830888 0.0282023 -1.12043e-19)
(-0.861953 0.0279926 0)
(-0.893101 0.0277817 1.05887e-19)
(-0.924338 0.0275725 0)
(-0.955673 0.0273722 0)
(-0.987106 0.0271947 -9.79088e-20)
(-1.01862 0.027055 0)
(-1.0503 0.0269513 -9.32372e-20)
(-1.08215 0.0268654 9.10728e-20)
(-1.11417 0.0267888 0)
(-1.14637 0.0267165 8.70451e-20)
(-1.17876 0.0266452 8.51677e-20)
(-1.21133 0.0265724 0)
(-1.24408 0.0264962 0)
(-1.277 0.0264149 0)
(-1.31009 0.0263272 0)
(-1.34333 0.0262319 0)
(-1.37672 0.0261277 -7.54721e-20)
(-1.41025 0.0260138 0)
(-1.44389 0.0258892 7.27363e-20)
(-1.47764 0.0257531 0)
(-1.51147 0.0256047 0)
(-1.54538 0.0254434 -6.90052e-20)
(-1.57933 0.0252685 0)
(-1.61332 0.0250794 6.67348e-20)
(-1.64731 0.0248755 0)
(-1.68128 0.0246562 0)
(-1.71522 0.0244209 0)
(-1.74909 0.0241692 -6.26316e-20)
(-1.78287 0.0239006 0)
(-1.81652 0.0236146 0)
(-1.85003 0.0233108 -5.98738e-20)
(-1.88336 0.0229887 0)
(-1.91647 0.0226478 -5.81606e-20)
(-1.94934 0.0222876 0)
(-1.98193 0.0219074 0)
(-2.0142 0.0215067 0)
(-2.04611 0.0210851 5.49771e-20)
(-2.07763 0.0206418 0)
(-2.10871 0.0201763 0)
(-2.13932 0.0196878 5.27557e-20)
(-2.1694 0.0191758 5.20395e-20)
(-2.19891 0.0186396 0)
(-2.22779 0.0180784 5.06354e-20)
(-2.25601 0.0174917 0)
(-2.2835 0.0168788 9.8521e-20)
(-2.31022 0.0162391 0)
(-2.33609 0.015572 9.5809e-20)
(-2.36107 0.0148773 0)
(-2.3851 0.0141547 -9.31145e-20)
(-2.4081 0.0134043 0)
(-2.43003 0.0126262 0)
(-2.4508 0.0118206 0)
(-2.47037 0.0109879 8.76962e-20)
(-2.48867 0.0101292 0)
(-2.50563 0.0092454 -8.49316e-20)
(-2.52119 0.00833816 0)
(-2.5353 0.00740909 8.21028e-20)
(-2.54788 0.00645987 8.06579e-20)
(-2.55889 0.00549222 7.91893e-20)
(-2.56828 0.00450796 0)
(-2.57599 0.00350866 0)
(-2.58199 0.00249435 0)
(-2.58622 0.00146472 0)
(-2.58862 0.000431468 0)
(-2.58918 -0.000593104 0)
(-2.58791 -0.00161027 0)
(-2.58477 -0.00262282 0)
(-2.57977 -0.00363056 -6.43079e-20)
(-2.57288 -0.0046329 -6.24226e-20)
(-2.5641 -0.00562916 0)
(-2.55343 -0.00661864 0)
(-2.54085 -0.00760062 0)
(-2.52636 -0.00857432 -5.43349e-20)
(-2.50996 -0.00953883 0)
(-2.49165 -0.0104931 0)
(-2.47144 -0.0114361 0)
(-2.44932 -0.0123666 0)
(-2.42531 -0.0132836 4.28072e-20)
(-2.39943 -0.0141859 0)
(-2.37168 -0.015072 0)
(-2.34209 -0.0159405 -3.50074e-20)
(-2.31068 -0.0167901 3.22431e-20)
(-2.27747 -0.0176194 0)
(-2.24251 -0.0184273 2.64497e-20)
(-2.20582 -0.0192124 0)
(-2.16744 -0.0199736 -2.02808e-20)
(-2.12741 -0.0207099 0)
(-2.08578 -0.02142 0)
(-2.04261 -0.0221027 0)
(-1.99793 -0.0227562 0)
(-1.95181 -0.0233796 0)
(-1.90432 -0.0239721 -1.56897e-21)
(-1.85551 -0.0245332 -9.42944e-21)
(-1.80546 -0.0250619 0)
(-1.75422 -0.0255578 0)
(-1.70188 -0.0260202 0)
(-1.64851 -0.0264484 4.36618e-20)
(-1.59419 -0.0268416 0)
(-1.539 -0.0271995 0)
(-1.48301 -0.0275231 0)
(-1.42631 -0.0278133 8.30222e-20)
(-1.36898 -0.0280689 -9.37881e-20)
(-1.3111 -0.0282886 0)
(-1.25276 -0.0284741 0)
(-1.19404 -0.0286286 -1.2864e-19)
(-1.13502 -0.0287523 -1.41192e-19)
(-1.07577 -0.0288422 0)
(-1.01639 -0.0288998 0)
(-0.956938 -0.0289323 1.82059e-19)
(-0.897491 -0.0289401 -1.96868e-19)
(-0.838119 -0.0289174 0)
(-0.778899 -0.0288691 0)
(-0.719885 -0.0288057 -2.45434e-19)
(-0.66113 -0.0287204 0)
(-0.602706 -0.0286109 0)
(-0.544651 -0.0284959 -3.01305e-19)
(-0.487007 -0.0283601 0)
(-0.429821 -0.028217 -3.43485e-19)
(-0.373108 -0.0280846 0)
(-0.316915 -0.0279164 0)
(-0.261244 -0.027779 0)
(-0.206178 -0.0276465 4.42927e-19)
(-0.151486 -0.0274774 0)
(-0.0975681 -0.0273616 0)
(-0.0443378 -0.0272736 0)
(0.00912844 -0.0269158 0)
(0.0612606 -0.025998 0)
(0.112111 -0.0248933 0)
(0.162376 -0.0239321 5.29274e-19)
(0.211852 -0.0230947 5.19472e-19)
(0.260699 -0.0223409 0)
(0.30902 -0.0216506 0)
(0.356882 -0.0210112 0)
(0.404329 -0.0204091 -4.86309e-19)
(0.451376 -0.0198232 0)
(0.497964 -0.0192179 9.44937e-19)
(0.54397 -0.0185395 -9.32433e-19)
(0.588875 -0.0176366 -9.21149e-19)
(0.632285 -0.016345 9.11698e-19)
(0.670533 -0.0137141 -9.05846e-19)
(0.706228 -0.00943695 9.07117e-19)
(0.695216 0.00611624 0)
(0.00277517 -0.0319346 0)
(0.00487964 -0.0266728 0)
(0.00112646 -0.0113519 4.71473e-19)
(-0.00690147 0.00510745 0)
(-0.0175618 0.0197065 -3.09587e-19)
(-0.0306104 0.0318493 -2.80337e-19)
(-0.0456696 0.0415728 -1.30231e-19)
(-0.062536 0.0490798 -1.22339e-19)
(-0.0810081 0.0547785 0)
(-0.100967 0.059264 -1.08356e-19)
(-0.122228 0.0629468 0)
(-0.144596 0.066059 0)
(-0.167908 0.0687157 1.80338e-19)
(-0.192029 0.0709725 8.50135e-20)
(-0.216847 0.0728621 -1.60332e-19)
(-0.242265 0.0744119 -1.51546e-19)
(-0.2682 0.0756501 -7.18049e-20)
(-0.294575 0.076607 0)
(-0.321325 0.0773136 0)
(-0.34839 0.0778014 0)
(-0.37572 0.0781006 -5.87533e-20)
(-0.403271 0.0782398 0)
(-0.431007 0.0782456 1.61538e-19)
(-0.458896 0.0781419 0)
(-0.486915 0.0779501 0)
(-0.515045 0.0776891 4.77828e-20)
(-0.543272 0.0773752 0)
(-0.571585 0.0770222 -4.44319e-20)
(-0.599979 0.076642 -8.57544e-20)
(-0.62845 0.0762442 4.15302e-20)
(-0.656999 0.0758367 0)
(-0.685626 0.0754256 0)
(-0.714337 0.0750157 0)
(-0.743136 0.0746106 -7.34309e-20)
(-0.772031 0.0742126 -7.14002e-20)
(-0.801028 0.0738235 -3.47994e-20)
(-0.830136 0.073444 0)
(-0.859364 0.0730749 6.60874e-20)
(-0.888722 0.0727164 0)
(-0.918218 0.0723688 -6.29426e-20)
(-0.947864 0.072033 0)
(-0.977672 0.0717125 0)
(-1.00765 0.071417 5.87967e-20)
(-1.03779 0.0711588 0)
(-1.0681 0.0709355 1.68785e-19)
(-1.09857 0.0707337 -5.51912e-20)
(-1.1292 0.070543 0)
(-1.15998 0.0703554 -5.30268e-20)
(-1.19092 0.0701647 -5.20071e-20)
(-1.222 0.0699659 0)
(-1.25324 0.0697547 0)
(-1.28461 0.0695275 0)
(-1.31611 0.069281 0)
(-1.34773 0.0690123 0)
(-1.37946 0.0687188 4.66188e-20)
(-1.41129 0.068398 9.14056e-20)
(-1.4432 0.0680478 -4.50568e-20)
(-1.47518 0.0676661 0)
(-1.50721 0.067251 8.69407e-20)
(-1.53928 0.066801 -4.26506e-20)
(-1.57136 0.0663144 0)
(-1.60344 0.0657897 -4.15534e-20)
(-1.63548 0.0652256 0)
(-1.66749 0.0646205 0)
(-1.69942 0.0639733 -7.91261e-20)
(-1.73125 0.0632829 3.90874e-20)
(-1.76296 0.062548 -7.67887e-20)
(-1.79452 0.0617677 7.56616e-20)
(-1.82591 0.0609409 3.7392e-20)
(-1.85709 0.0600664 0)
(-1.88803 0.059143 3.63216e-20)
(-1.9187 0.0581697 0)
(-1.94907 0.057145 0)
(-1.9791 0.0560679 0)
(-2.00876 0.054937 3.40912e-20)
(-2.03801 0.0537508 0)
(-2.06681 0.0525079 6.64548e-20)
(-2.09511 0.0512068 -9.83538e-20)
(-2.12288 0.049846 -3.23751e-20)
(-2.15006 0.0484237 0)
(-2.17662 0.0469385 -3.14409e-20)
(-2.20249 0.0453888 0)
(-2.22764 0.0437732 -6.1031e-20)
(-2.252 0.0420903 0)
(-2.27552 0.0403391 -5.91863e-20)
(-2.29815 0.0385188 1.16258e-19)
(-2.31981 0.0366292 5.7336e-20)
(-2.34046 0.0346705 0)
(-2.36003 0.0326432 0)
(-2.37845 0.0305485 0)
(-2.39567 0.0283883 -5.35745e-20)
(-2.41161 0.0261652 0)
(-2.42622 0.0238827 5.16426e-20)
(-2.43944 0.0215451 0)
(-2.4512 0.0191573 -1.4891e-19)
(-2.46145 0.0167247 -4.86546e-20)
(-2.47013 0.0142528 -4.76305e-20)
(-2.47719 0.0117477 0)
(-2.48258 0.0092142 0)
(-2.48626 0.00665441 0)
(-2.48817 0.00406973 0)
(-2.48827 0.00148406 0)
(-2.48658 -0.00107561 -8.22453e-20)
(-2.48308 -0.00360754 -7.99014e-20)
(-2.47775 -0.0061136 0)
(-2.47057 -0.00859304 3.7434e-20)
(-2.46155 -0.0110442 3.61753e-20)
(-2.45067 -0.0134651 0)
(-2.43792 -0.0158537 6.74415e-20)
(-2.42329 -0.0182078 0)
(-2.4068 -0.0205251 -3.12118e-20)
(-2.38842 -0.022803 0)
(-2.36817 -0.0250388 0)
(-2.34605 -0.0272297 5.36416e-20)
(-2.32206 -0.0293727 0)
(-2.29622 -0.0314647 -2.36297e-20)
(-2.26854 -0.0335025 0)
(-2.23904 -0.0354828 0)
(-2.20773 -0.0374018 -1.94821e-20)
(-2.17464 -0.0392561 -1.73192e-20)
(-2.1398 -0.0410426 0)
(-2.10324 -0.0427583 1.46085e-20)
(-2.06499 -0.0444004 0)
(-2.02511 -0.0459663 -1.12174e-20)
(-1.98362 -0.0474536 -1.82787e-20)
(-1.94057 -0.0488601 0)
(-1.89603 -0.050183 0)
(-1.85002 -0.0514192 0)
(-1.80263 -0.0525664 0)
(-1.7539 -0.0536231 7.7255e-22)
(-1.70391 -0.0545883 1.21968e-20)
(-1.65271 -0.0554612 0)
(-1.60039 -0.0562417 0)
(-1.54701 -0.0569294 0)
(-1.49264 -0.057523 -2.03395e-20)
(-1.43737 -0.0580216 0)
(-1.38128 -0.0584261 0)
(-1.32443 -0.0587392 6.34165e-20)
(-1.26692 -0.0589642 3.49727e-20)
(-1.20883 -0.0591009 4.09428e-20)
(-1.15022 -0.0591477 0)
(-1.0912 -0.0591081 0)
(-1.03184 -0.0589892 5.37333e-20)
(-0.972211 -0.058795 -5.62456e-20)
(-0.912396 -0.0585228 0)
(-0.852476 -0.0581741 0)
(-0.792524 -0.0577628 -7.12194e-20)
(-0.732605 -0.0572943 2.25176e-19)
(-0.672786 -0.0567604 0)
(-0.613141 -0.056169 0)
(-0.553724 -0.0555404 8.91408e-20)
(-0.494584 -0.0548668 0)
(-0.435782 -0.0541447 1.94745e-19)
(-0.377361 -0.0534079 -1.011e-19)
(-0.319361 -0.052635 0)
(-0.261803 -0.0518414 1.12084e-19)
(-0.204737 -0.0510597 2.31791e-19)
(-0.14817 -0.0502345 0)
(-0.0920775 -0.0494323 0)
(-0.0366692 -0.0486571 -1.30831e-19)
(0.0186016 -0.0478043 0)
(0.0728784 -0.0469284 2.70805e-19)
(0.126394 -0.0461162 0)
(0.179376 -0.0452075 0)
(0.23163 -0.0439935 0)
(0.28327 -0.0427102 0)
(0.334404 -0.0415762 -1.43536e-19)
(0.384964 -0.0405629 -1.44941e-19)
(0.435039 -0.0396475 0)
(0.484698 -0.0388093 0)
(0.533996 -0.0380303 0)
(0.582969 -0.0372873 1.49878e-19)
(0.631627 -0.0365448 0)
(0.67991 -0.0357388 -3.03959e-19)
(0.727699 -0.0347595 3.05948e-19)
(0.774563 -0.0333587 3.07947e-19)
(0.82019 -0.0311402 3.08221e-19)
(0.862036 -0.0268643 3.12738e-19)
(0.902919 -0.0189122 3.1527e-19)
(0.920551 -3.47277e-05 0)
(-0.00265177 -0.0301441 0)
(-0.0100522 -0.0111829 0)
(-0.0216638 0.0117155 -2.91779e-19)
(-0.0348112 0.0314612 -2.17653e-19)
(-0.0492496 0.0484515 1.84971e-19)
(-0.0646915 0.0629399 1.66989e-19)
(-0.0811547 0.0750823 4.92593e-23)
(-0.0986979 0.0850856 0)
(-0.117342 0.0932461 0)
(-0.137044 0.0999278 0)
(-0.157693 0.105451 0)
(-0.179159 0.110052 0)
(-0.201316 0.11389 -3.37692e-19)
(-0.224056 0.117071 0)
(-0.247289 0.119672 1.01882e-19)
(-0.270943 0.121756 9.70778e-20)
(-0.294955 0.123377 0)
(-0.319275 0.124589 0)
(-0.343859 0.125441 0)
(-0.36867 0.125981 0)
(-0.393678 0.126255 7.78206e-20)
(-0.418857 0.126305 0)
(-0.444185 0.126169 -7.19382e-20)
(-0.469647 0.125883 0)
(-0.495229 0.125478 0)
(-0.520921 0.124981 0)
(-0.546717 0.124415 -1.24793e-19)
(-0.572613 0.123802 0)
(-0.598609 0.123157 5.85683e-20)
(-0.624703 0.122495 -1.13541e-19)
(-0.6509 0.121828 0)
(-0.677203 0.121164 0)
(-0.703616 0.120511 0)
(-0.730146 0.119873 5.07656e-20)
(-0.756799 0.119254 4.94581e-20)
(-0.783583 0.118658 0)
(-0.810504 0.118084 0)
(-0.83757 0.117535 -9.17445e-20)
(-0.86479 0.117011 -8.96181e-20)
(-0.892169 0.116512 8.75922e-20)
(-0.919714 0.116038 0)
(-0.94743 0.115589 0)
(-0.975319 0.115167 0)
(-1.00338 0.114772 0)
(-1.0316 0.114399 -7.88496e-20)
(-1.05999 0.114041 -7.71526e-20)
(-1.08853 0.113687 7.5645e-20)
(-1.11722 0.113331 0)
(-1.14605 0.112965 0)
(-1.17503 0.112583 0)
(-1.20415 0.112179 0)
(-1.23339 0.111748 -6.8867e-20)
(-1.26275 0.111285 0)
(-1.29222 0.110785 0)
(-1.32178 0.110245 -6.53116e-20)
(-1.35143 0.10966 -6.43407e-20)
(-1.38116 0.109028 0)
(-1.41094 0.108345 1.24139e-19)
(-1.44076 0.107609 -6.11923e-20)
(-1.47061 0.106817 6.02008e-20)
(-1.50046 0.105965 0)
(-1.5303 0.105053 0)
(-1.5601 0.104078 0)
(-1.58985 0.103037 0)
(-1.61953 0.101929 5.56132e-20)
(-1.6491 0.100753 1.09246e-19)
(-1.67855 0.0995052 5.39266e-20)
(-1.70785 0.0981856 -5.31103e-20)
(-1.73697 0.096792 0)
(-1.76589 0.0953227 1.02788e-19)
(-1.79457 0.0937758 1.01252e-19)
(-1.82299 0.0921496 9.97418e-20)
(-1.85112 0.090442 -9.82565e-20)
(-1.87892 0.0886511 0)
(-1.90636 0.0867747 -1.43148e-19)
(-1.9334 0.0848105 0)
(-1.96 0.0827563 4.61463e-20)
(-1.98613 0.0806093 4.56746e-20)
(-2.01175 0.078367 0)
(-2.03681 0.0760269 0)
(-2.06126 0.0735862 8.7017e-20)
(-2.08506 0.0710423 0)
(-2.10816 0.0683928 8.43128e-20)
(-2.13051 0.0656356 0)
(-2.15206 0.0627687 -8.16196e-20)
(-2.17274 0.059791 -1.60693e-19)
(-2.1925 0.0567019 0)
(-2.21128 0.0535015 0)
(-2.22902 0.0501906 0)
(-2.24566 0.0467713 -7.48378e-20)
(-2.26113 0.0432465 0)
(-2.27538 0.0396208 -7.20687e-20)
(-2.28833 0.0358997 0)
(-2.29994 0.0320902 0)
(-2.31013 0.0282002 1.35657e-19)
(-2.31885 0.0242384 0)
(-2.32604 0.0202141 6.48988e-20)
(-2.33166 0.0161372 0)
(-2.33565 0.012016 6.19075e-20)
(-2.33797 0.00785611 0)
(-2.33856 0.00367554 0)
(-2.33745 -0.000486183 0)
(-2.33458 -0.00460484 1.66446e-19)
(-2.32996 -0.00867995 5.37175e-20)
(-2.32357 -0.0127108 0)
(-2.3154 -0.0166952 0)
(-2.30543 -0.0206303 0)
(-2.29367 -0.0245129 0)
(-2.28009 -0.0283394 -4.48162e-20)
(-2.2647 -0.0321061 8.63317e-20)
(-2.24749 -0.035809 4.10492e-20)
(-2.22847 -0.0394439 -7.8743e-20)
(-2.20762 -0.0430061 -7.48595e-20)
(-2.18497 -0.0464911 -3.51767e-20)
(-2.16051 -0.0498939 0)
(-2.13426 -0.0532095 -6.28594e-20)
(-2.10622 -0.0564326 0)
(-2.07642 -0.0595575 5.45773e-20)
(-2.04487 -0.0625784 2.4821e-20)
(-2.01161 -0.0654895 0)
(-1.97664 -0.0682857 -4.1759e-20)
(-1.94002 -0.070962 -1.82962e-20)
(-1.90177 -0.073514 0)
(-1.86193 -0.0759374 -1.46786e-20)
(-1.82055 -0.0782287 3.55797e-20)
(-1.77767 -0.080384 0)
(-1.73334 -0.0823992 0)
(-1.6876 -0.0842699 0)
(-1.64053 -0.0859923 0)
(-1.59218 -0.0875636 9.78998e-22)
(-1.54261 -0.0889822 -4.70199e-21)
(-1.4919 -0.0902475 0)
(-1.4401 -0.0913599 0)
(-1.38729 -0.0923192 0)
(-1.33354 -0.0931233 0)
(-1.27893 -0.093771 0)
(-1.22354 -0.0942641 0)
(-1.16744 -0.0946069 -3.80619e-20)
(-1.11071 -0.0948057 -1.07683e-21)
(-1.05343 -0.094861 0)
(-0.995681 -0.094771 0)
(-0.937542 -0.0945408 -5.60996e-20)
(-0.879093 -0.0941815 0)
(-0.820406 -0.093701 6.66972e-20)
(-0.761554 -0.0930968 7.0347e-20)
(-0.702617 -0.0923709 0)
(-0.643668 -0.091544 0)
(-0.584767 -0.0906263 -8.55313e-20)
(-0.525976 -0.0896074 -1.78248e-19)
(-0.467367 -0.0884983 0)
(-0.408992 -0.0873303 0)
(-0.350897 -0.0860942 0)
(-0.293133 -0.084785 -1.08591e-19)
(-0.235744 -0.0834513 1.13127e-19)
(-0.17878 -0.0820713 0)
(-0.12221 -0.0806554 2.42224e-19)
(-0.0661571 -0.0792504 1.24586e-19)
(-0.0105666 -0.077814 -2.59587e-19)
(0.0446322 -0.076352 0)
(0.0989815 -0.0749091 0)
(0.152843 -0.0734126 -2.76593e-19)
(0.206025 -0.0718604 -1.41636e-19)
(0.258602 -0.0703669 0)
(0.3106 -0.0688788 0)
(0.362058 -0.0672818 0)
(0.4131 -0.0656907 0)
(0.463746 -0.064236 -3.04866e-19)
(0.513957 -0.0629112 0)
(0.563784 -0.0617018 0)
(0.613278 -0.0605895 0)
(0.662484 -0.0595521 0)
(0.711432 -0.0585568 0)
(0.76013 -0.057551 0)
(0.808526 -0.0564416 -3.3281e-19)
(0.85652 -0.0550689 0)
(0.903767 -0.053106 0)
(0.950121 -0.0500316 -6.88161e-19)
(0.993761 -0.044501 3.47464e-19)
(1.03817 -0.0349869 -3.5388e-19)
(1.06979 -0.0158276 3.5918e-19)
(-0.00792863 -0.0108944 0)
(-0.0208674 0.0182781 7.55676e-19)
(-0.0356146 0.0428344 0)
(-0.0516185 0.0635985 1.63533e-19)
(-0.0682053 0.0816367 0)
(-0.0851211 0.0973021 0)
(-0.102462 0.110752 -1.14761e-19)
(-0.120342 0.122137 0)
(-0.138831 0.131667 0)
(-0.157939 0.139595 0)
(-0.177632 0.146174 0)
(-0.197849 0.151621 0)
(-0.218522 0.15611 3.36271e-19)
(-0.239588 0.159774 1.60498e-19)
(-0.260988 0.162722 -1.53346e-19)
(-0.282678 0.165041 0)
(-0.304619 0.166808 0)
(-0.32678 0.168092 0)
(-0.349136 0.168958 0)
(-0.371667 0.169464 0)
(-0.394357 0.169666 1.19534e-19)
(-0.417192 0.169612 1.15168e-19)
(-0.440163 0.16935 -1.11096e-19)
(-0.463261 0.16892 1.07292e-19)
(-0.486482 0.168357 0)
(-0.509821 0.167695 0)
(-0.533278 0.16696 9.72876e-20)
(-0.556851 0.166176 0)
(-0.580543 0.165363 0)
(-0.604355 0.164537 8.90031e-20)
(-0.628292 0.163712 8.65288e-20)
(-0.652356 0.162897 8.42097e-20)
(-0.676554 0.162102 0)
(-0.700889 0.161331 0)
(-0.725368 0.160588 -7.79585e-20)
(-0.749997 0.159877 0)
(-0.77478 0.159198 0)
(-0.799722 0.158551 7.26326e-20)
(-0.824829 0.157935 -7.09101e-20)
(-0.850104 0.15735 6.93505e-20)
(-0.875551 0.156792 0)
(-0.90117 0.156261 0)
(-0.926962 0.155753 1.30215e-19)
(-0.952923 0.155264 0)
(-0.979048 0.154788 1.25034e-19)
(-1.00533 0.154319 1.83942e-19)
(-1.03177 0.153846 -1.80401e-19)
(-1.05836 0.153362 1.17945e-19)
(-1.0851 0.15286 0)
(-1.11197 0.152331 0)
(-1.13897 0.15177 1.1155e-19)
(-1.16609 0.151168 5.48462e-20)
(-1.19333 0.150521 0)
(-1.22067 0.149823 0)
(-1.2481 0.149069 5.20317e-20)
(-1.2756 0.148253 1.02154e-19)
(-1.30318 0.147371 0)
(-1.3308 0.14642 -9.8908e-20)
(-1.35846 0.145395 9.71404e-20)
(-1.38614 0.144293 -9.55583e-20)
(-1.41382 0.143111 0)
(-1.44148 0.141845 0)
(-1.4691 0.140494 0)
(-1.49667 0.139053 0)
(-1.52416 0.137521 0)