/*--------------------------------*- C++ -*----------------------------------*\
| =========                 |                                                 |
| \\      /  F ield         | OpenFOAM: The Open Source CFD Toolbox           |
|  \\    /   O peration     | Version:  2.2.x                                 |
|   \\  /    A nd           | Web:      www.OpenFOAM.org                      |
|    \\/     M anipulation  |                                                 |
\*---------------------------------------------------------------------------*/
FoamFile
{
    version     2.0;
    format      ascii;
    class       volScalarField;
    location    "500";
    object      epsilon;
}
// * * * * * * * * * * * * * * * * * * * * * * * * * * * * * * * * * * * * * //

dimensions      [0 2 -3 0 0 0 0];

internalField   nonuniform List<scalar> 
12225
(
1739.11
3020.52
4030.08
4714.54
5131.97
5357.77
5455.61
5472.13
5439.13
5377.42
5300.26
5215.94
5129.56
5044.21
4961.67
4882.86
4807.06
4740.89
187.431
345.308
471.691
572.293
644.876
692.976
722.792
740.07
749.23
753.41
754.729
754.566
753.796
752.962
752.434
752.744
756.149
763.542
41.8452
72.5087
98.5893
120.688
138.677
152.654
163.118
170.708
176.049
179.694
182.1
183.633
184.572
185.13
185.473
185.759
186.175
186.571
20.3598
27.983
35.4711
42.3246
48.363
53.5215
57.8292
61.3633
64.2195
66.497
68.2907
69.6865
70.7597
71.5749
72.1872
72.6446
72.9837
73.1853
16.0562
18.2137
20.6756
23.1513
25.4991
27.6461
29.5633
31.2478
32.7098
33.9663
35.0374
35.9439
36.7062
37.3432
37.8721
38.3082
38.6626
38.9329
15.0131
15.5456
16.313
17.1965
18.116
19.0198
19.8778
20.6737
21.4005
22.0564
22.643
23.1639
23.6236
24.0271
24.3796
24.6856
24.9488
25.1682
14.7583
14.7814
14.9213
15.1496
15.4363
15.7556
16.0875
16.4183
16.7388
17.0432
17.3279
17.5914
17.833
18.0529
18.2517
18.4304
18.5896
18.7279
14.7063
14.5999
14.5497
14.5524
14.5992
14.6793
14.7826
14.9002
15.0254
15.1531
15.2793
15.4016
15.5181
15.6277
15.7297
15.8237
15.9094
15.9849
14.6923
14.5448
14.4247
14.3339
14.2712
14.2336
14.2169
14.2167
14.2292
14.2509
14.2789
14.3109
14.345
14.3799
14.4145
14.4479
14.4795
14.5079
14.6883
14.5275
14.3816
14.2517
14.1383
14.041
13.9587
13.8899
13.8329
13.786
13.7476
13.7162
13.6905
13.6693
13.6518
13.6371
13.6245
13.6131
14.6872
14.5228
14.3691
14.2261
14.0939
13.9722
13.8609
13.7593
13.667
13.5831
13.5069
13.4378
13.3749
13.3176
13.2653
13.2173
13.1731
13.1326
14.6868
14.5216
14.3659
14.2194
14.0816
13.9522
13.8308
13.717
13.6105
13.5109
13.4178
13.3308
13.2495
13.1734
13.1022
13.0355
12.973
12.9149
14.6866
14.5211
14.365
14.2176
14.0785
13.9471
13.823
13.7057
13.5949
13.4902
13.3913
13.2978
13.2095
13.126
13.047
12.9722
12.9016
12.8353
14.6865
14.5209
14.3646
14.217
14.0775
13.9456
13.8209
13.7028
13.5909
13.485
13.3845
13.2893
13.1989
13.1131
13.0317
12.9543
12.8809
12.8119
14.6864
14.5207
14.3643
14.2166
14.077
13.945
13.82
13.7017
13.5896
13.4833
13.3824
13.2867
13.1959
13.1095
13.0275
12.9495
12.8753
12.8055
14.6863
14.5206
14.3641
14.2163
14.0766
13.9445
13.8194
13.701
13.5888
13.4823
13.3814
13.2855
13.1945
13.108
13.0257
12.9475
12.8731
12.8031
14.6863
14.5205
14.364
14.2161
14.0764
13.9442
13.8191
13.7005
13.5882
13.4817
13.3806
13.2847
13.1936
13.1069
13.0246
12.9463
12.8718
12.8017
14.6863
14.5205
14.364
14.2161
14.0763
13.9441
13.8189
13.7003
13.5879
13.4814
13.3803
13.2843
13.1931
13.1064
13.024
12.9456
12.8711
12.801
14.6863
14.5205
14.364
14.2161
14.0763
13.9441
13.8189
13.7003
13.5879
13.4814
13.3802
13.2842
13.193
13.1064
13.0239
12.9456
12.8711
12.8009
14.6863
14.5206
14.3641
14.2162
14.0765
13.9443
13.8191
13.7006
13.5883
13.4818
13.3807
13.2848
13.1938
13.1072
13.025
12.9468
12.8725
12.8026
14.6864
14.5207
14.3642
14.2165
14.0769
13.9449
13.82
13.7019
13.5901
13.4842
13.3839
13.2888
13.1987
13.1133
13.0324
12.9555
12.8827
12.8143
14.6865
14.5209
14.3648
14.2177
14.0791
13.9486
13.8258
13.7104
13.6018
13.4998
13.404
13.314
13.2294
13.1499
13.0752
13.0049
12.9388
12.8774
14.6868
14.5224
14.369
14.2265
14.095
13.9742
13.8637
13.7628
13.6711
13.5877
13.512
13.4432
13.3806
13.3236
13.2716
13.2241
13.1806
13.1412
14.6896
14.5346
14.3997
14.286
14.1933
14.12
14.0639
14.0227
13.994
13.9754
13.965
13.9611
13.9621
13.9669
13.9745
13.984
13.9949
14.0068
14.7121
14.6198
14.5883
14.6114
14.6787
14.7791
14.9027
15.041
15.1875
15.3373
15.4866
15.6328
15.7742
15.9093
16.0375
16.1584
16.2717
16.3774
14.8713
15.1221
15.5436
16.0693
16.6495
17.2492
17.8453
18.4232
18.9743
19.4934
19.9781
20.4274
20.8418
21.2223
21.5702
21.8874
22.1758
22.437
15.8759
17.7061
19.7887
21.899
23.9449
25.8794
27.68
29.3379
30.8519
32.2249
33.4624
34.5721
35.5627
36.4432
37.2231
37.9111
38.5156
39.0447
22.1652
31.1006
39.3164
46.8948
53.8935
60.2835
66.0528
71.2081
75.7678
79.7612
83.2273
86.2114
88.7616
90.9263
92.7511
94.2774
95.5384
96.5534
68.019
114.9
154.784
191.792
226.041
256.871
283.972
307.32
327.074
343.524
357.034
367.994
376.787
383.765
389.239
393.466
396.632
398.742
723.143
1065.45
1375.75
1655.21
1913.03
2142.3
2339.7
2504.88
2639.51
2746.45
2829.08
2890.9
2935.26
2965.2
2983.38
2992.12
2993.38
2988.64
1.18904
1.17536
1.68781
2.16305
2.69576
3.26883
3.97206
4.80825
5.7609
6.83097
8.00679
9.27751
10.6348
12.0722
13.5844
15.1671
16.8165
18.5294
20.3034
22.1368
24.0284
25.9785
27.988
30.0599
32.1989
34.4124
36.7116
39.1125
41.6101
44.1864
46.8429
49.5829
52.4103
55.329
58.3434
61.458
64.6776
68.0073
71.4522
75.0177
78.7095
82.5332
86.4945
90.5993
94.8535
99.2629
103.833
108.571
113.481
118.569
123.841
129.302
134.957
140.812
146.872
153.14
159.622
166.321
173.242
180.388
187.762
195.368
203.208
211.284
219.599
228.153
236.949
245.987
255.268
264.79
274.554
284.559
294.802
305.282
315.995
326.938
338.106
349.493
361.094
372.901
384.907
397.102
409.475
422.017
434.714
447.554
460.526
473.615
486.811
500.106
513.496
526.987
540.597
554.371
568.39
582.501
596.526
610.437
624.198
637.774
651.124
664.204
676.969
689.369
701.354
712.869
723.856
734.26
744.02
753.077
761.37
768.84
775.426
781.072
785.725
789.333
791.853
793.244
793.475
792.521
790.366
787.006
782.446
776.701
769.797
761.77
752.668
742.55
731.486
719.549
706.819
693.384
679.341
664.783
649.803
634.497
618.965
603.294
587.566
571.87
556.29
540.881
525.712
510.858
496.353
482.232
468.566
455.378
442.658
430.489
418.889
407.903
397.819
388.849
380.35
372.199
364.36
356.817
349.563
342.601
336.19
330.114
324.354
318.921
313.84
309.093
304.674
300.576
296.829
293.32
290.262
287.484
284.971
282.691
280.636
278.614
276.333
273.294
270.012
260.775
3.96018
2.17542
2.09066
2.32691
2.69191
3.15001
3.69383
4.31561
5.00326
5.74504
6.53078
7.35289
8.20616
9.08703
9.99311
10.9228
11.8751
12.8495
13.846
14.865
15.9072
16.9739
18.0665
19.1869
20.3372
21.5198
22.7367
23.9896
25.2787
26.6041
27.9671
29.3694
30.8131
32.3001
33.8324
35.4123
37.0418
38.7232
40.4588
42.2506
44.1011
46.0125
47.9869
50.0266
52.1337
54.3104
56.5587
58.8805
61.2777
63.7522
66.3057
68.9399
71.6563
74.4562
77.3411
80.312
83.3699
86.5157
89.7502
93.0739
96.4873
99.9907
103.584
107.267
111.041
114.903
118.854
122.893
127.019
131.232
135.528
139.908
144.369
148.909
153.526
158.219
162.983
167.818
172.719
177.683
182.708
187.79
192.925
198.109
203.34
208.613
213.925
219.274
224.659
230.077
235.531
241.024
246.562
252.156
257.822
263.552
269.254
274.908
280.5
286.015
291.439
296.755
301.946
306.993
311.878
316.579
321.075
325.345
329.366
333.116
336.57
339.706
342.5
344.931
346.978
348.619
349.837
350.615
350.941
350.802
350.191
349.106
347.544
345.51
343.012
340.061
336.675
332.873
328.679
324.12
319.226
314.028
308.563
302.866
296.972
290.919
284.745
278.484
272.172
265.841
259.525
253.251
247.045
240.939
234.946
229.089
223.394
217.85
212.499
207.365
202.448
197.76
193.356
189.27
185.397
181.701
178.175
174.809
171.604
168.558
165.76
163.125
160.635
158.286
156.077
154.004
152.061
150.245
148.555
146.964
145.528
144.223
143.018
141.901
140.862
139.865
138.845
137.746
136.598
135.673
7.30271
3.63051
3.18428
3.24726
3.50929
3.89517
4.37678
4.9369
5.5603
6.23325
6.94444
7.68546
8.45059
9.23618
10.0401
10.8613
11.6993
12.5542
13.4267
14.3175
15.2274
16.1579
17.11
18.0852
19.0849
20.1104
21.1629
22.2437
23.3536
24.4939
25.666
26.8712
28.1111
29.3874
30.7017
32.0555
33.4507
34.8887
36.3714
37.9004
39.4773
41.1038
42.7815
44.5121
46.2971
48.138
50.0363
51.9933
54.0104
56.0888
58.2299
60.4345
62.7039
65.0388
67.4401
69.9084
72.4444
75.0485
77.721
80.4621
83.2719
86.1502
89.0971
92.1119
95.1944
98.3438
101.559
104.84
108.186
111.594
115.065
118.596
122.186
125.834
129.537
133.295
137.105
140.965
144.873
148.828
152.827
156.869
160.95
165.069
169.225
173.414
177.636
181.888
186.17
190.481
194.821
199.188
203.585
208.011
212.47
216.928
221.36
225.753
230.098
234.384
238.6
242.734
246.773
250.703
254.511
258.181
261.698
265.046
268.206
271.162
273.896
276.39
278.626
280.587
282.256
283.617
284.656
285.359
285.714
285.713
285.348
284.616
283.516
282.048
280.219
278.037
275.513
272.661
269.501
266.052
262.336
258.379
254.207
249.847
245.329
240.68
235.929
231.105
226.234
221.342
216.457
211.597
206.786
202.048
197.387
192.831
188.407
184.112
179.958
175.961
172.123
168.452
164.958
161.653
158.517
155.54
152.712
150.029
147.489
145.095
142.862
140.767
138.791
136.932
135.184
133.542
131.999
130.548
129.185
127.906
126.715
125.6
124.547
123.553
122.615
121.721
120.852
120.004
119.211
118.888
10.6861
5.14963
4.29886
4.20269
4.37553
4.69862
5.1279
5.63988
6.21771
6.84763
7.51837
8.22126
8.95001
9.7004
10.4698
11.2569
12.0611
12.8824
13.7212
14.5784
15.4547
16.3512
17.269
18.2093
19.1732
20.1619
21.1764
22.218
23.2877
24.3868
25.5166
26.6784
27.8736
29.1037
30.3701
31.6742
33.0177
34.4018
35.8283
37.2985
38.8139
40.3761
41.9866
43.6468
45.3581
47.1219
48.9397
50.8126
52.7419
54.7288
56.7745
58.88
61.0462
63.274
65.5642
67.9174
70.3341
72.8149
75.3599
77.9694
80.6435
83.382
86.1848
89.0515
91.9816
94.9745
98.0295
101.146
104.322
107.558
110.852
114.202
117.608
121.068
124.58
128.143
131.756
135.417
139.123
142.875
146.669
150.505
154.381
158.295
162.245
166.23
170.248
174.298
178.378
182.486
186.621
190.781
194.965
199.169
203.382
207.583
211.76
215.902
220
224.046
228.029
231.939
235.764
239.493
243.113
246.61
249.971
253.179
256.22
259.078
261.735
264.175
266.382
268.338
270.028
271.436
272.547
273.349
273.828
273.977
273.786
273.251
272.37
271.143
269.573
267.668
265.438
262.895
260.055
256.937
253.562
249.953
246.134
242.133
237.976
233.688
229.298
224.836
220.321
215.783
211.248
206.729
202.253
197.851
193.53
189.305
185.194
181.205
177.345
173.624
170.048
166.619
163.343
160.223
157.255
154.436
151.762
149.227
146.831
144.572
142.449
140.45
138.565
136.787
135.111
133.531
132.039
130.628
129.293
128.029
126.832
125.693
124.605
123.563
122.566
121.611
120.693
119.821
119.03
118.592
14.9888
6.74271
5.39471
5.11758
5.19577
5.45579
5.83493
6.30266
6.83995
7.43283
8.07036
8.74398
9.44726
10.1756
10.926
11.6966
12.4864
13.2952
14.1231
14.9708
15.8388
16.7281
17.6396
18.5744
19.5334
20.5178
21.5287
22.567
23.6341
24.7311
25.8592
27.0198
28.214
29.4433
30.7091
32.0128
33.3558
34.7395
36.1655
37.6351
39.15
40.7115
42.3212
43.9806
45.6912
47.4543
49.2715
51.1441
53.0735
55.0609
57.1076
59.2148
61.3835
63.6147
65.9095
68.2685
70.6924
73.182
75.7375
78.3593
81.0477
83.8026
86.624
89.5117
92.4652
95.4841
98.5677
101.715
104.926
108.198
111.532
114.925
118.377
121.886
125.45
129.069
132.741
136.464
140.237
144.058
147.927
151.841
155.798
159.798
163.839
167.918
172.034
176.186
180.37
184.584
188.826
193.093
197.383
201.687
205.99
210.278
214.542
218.772
222.96
227.097
231.174
235.181
239.107
242.94
246.669
250.281
253.762
257.096
260.27
263.266
266.069
268.662
271.027
273.149
275.01
276.594
277.886
278.871
279.537
279.872
279.867
279.517
278.816
277.765
276.365
274.623
272.546
270.147
267.44
264.445
261.182
257.672
253.941
250.018
245.927
241.694
237.351
232.929
228.44
223.923
219.411
214.919
210.466
206.079
201.769
197.553
193.444
189.452
185.587
181.854
178.261
174.81
171.505
168.348
165.337
162.472
159.749
157.166
154.719
152.404
150.218
148.15
146.192
144.339
142.584
140.918
139.335
137.828
136.39
135.015
133.698
132.431
131.209
130.027
128.884
127.78
126.713
125.694
124.744
124.018
19.4785
8.31163
6.42737
5.95717
5.93695
6.13381
6.46477
6.89135
7.3916
7.95084
8.55822
9.20542
9.88609
10.5956
11.3305
12.0888
12.8692
13.6711
14.4944
15.3394
16.2066
17.0968
18.0108
18.9494
19.9138
20.9048
21.9235
22.971
24.0485
25.1571
26.298
27.4724
28.6817
29.9272
31.2102
32.5322
33.8945
35.2987
36.7463
38.2388
39.7778
41.3648
43.0015
44.6895
46.4304
48.2257
50.0772
51.9864
53.9547
55.9839
58.0752
60.2302
62.4501
64.7363
67.0899
69.512
72.0036
74.5654
77.1983
79.9028
82.6793
85.5281
88.4493
91.443
94.5089
97.6466
100.856
104.135
107.485
110.904
114.39
117.943
121.562
125.245
128.99
132.797
136.664
140.589
144.571
148.609
152.7
156.843
161.037
165.28
169.57
173.904
178.28
182.697
187.15
191.637
196.154
200.698
205.265
209.839
214.407
218.958
223.482
227.971
232.417
236.81
241.142
245.403
249.581
253.667
257.648
261.511
265.243
268.828
272.253
275.501
278.554
281.397
284.012
286.382
288.489
290.316
291.846
293.064
293.955
294.506
294.708
294.552
294.033
293.146
291.894
290.281
288.314
286.004
283.365
280.416
277.179
273.674
269.925
265.966
261.824
257.514
253.086
248.569
243.985
239.363
234.733
230.117
225.536
221.011
216.56
212.198
207.939
203.795
199.774
195.885
192.133
188.522
185.057
181.737
178.564
175.535
172.649
169.903
167.293
164.813
162.459
160.221
158.092
156.066
154.134
152.288
150.522
148.828
147.198
145.627
144.106
142.631
141.195
139.796
138.432
137.104
135.809
134.553
133.341
132.258
23.8114
9.77934
7.36466
6.7021
6.58403
6.71912
7.0042
7.39259
7.85897
8.38749
8.96709
9.58959
10.2488
10.9402
11.6602
12.4068
13.1783
13.974
14.7936
15.6371
16.5051
17.398
18.3165
19.2616
20.2341
21.235
22.2653
23.3261
24.4185
25.5437
26.7028
27.8972
29.128
30.3968
31.7047
33.0534
34.4443
35.8789
37.3589
38.8859
40.4616
42.0877
43.7661
45.4984
47.2866
49.1325
51.0379
53.0047
55.0347
57.1298
59.2917
61.5222
63.823
66.1957
68.6418
71.1628
73.76
76.4346
79.1877
82.0202
84.9329
87.9263
91.001
94.1571
97.3947
100.714
104.114
107.594
111.154
114.793
118.51
122.304
126.173
130.117
134.133
138.22
142.377
146.601
150.892
155.248
159.666
164.146
168.684
173.279
177.929
182.631
187.382
192.178
197.016
201.892
206.801
211.738
216.698
221.657
226.604
231.529
236.423
241.277
246.083
250.831
255.512
260.116
264.633
269.052
273.361
277.548
281.598
285.498
289.232
292.784
296.137
299.275
302.181
304.835
307.221
309.32
311.115
312.588
313.723
314.506
314.926
314.972
314.636
313.914
312.804
311.31
309.438
307.198
304.6
301.667
298.42
294.878
291.06
287.017
282.772
278.35
273.787
269.117
264.367
259.565
254.741
249.92
245.124
240.377
235.696
231.098
226.599
222.211
217.945
213.808
209.808
205.95
202.236
198.668
195.248
191.972
188.841
185.849
182.994
180.268
177.666
175.181
172.803
170.526
168.341
166.241
164.216
162.26
160.364
158.521
156.725
154.969
153.248
151.561
149.906
148.282
146.686
145.119
143.566
142.081
27.8092
11.1076
8.19218
7.34555
7.13302
7.20861
7.45008
7.80279
8.23792
8.73814
9.29196
9.89119
10.5298
11.2032
11.9082
12.6424
13.4043
14.193
15.008
15.8493
16.7173
17.6123
18.5351
19.4865
20.4672
21.4784
22.5209
23.5959
24.7045
25.8479
27.0273
28.2439
29.4992
30.7946
32.1315
33.5114
34.936
36.4068
37.9258
39.4946
41.1152
42.7895
44.5195
46.3072
48.1547
50.0643
52.038
54.078
56.1866
58.3659
60.6182
62.9456
65.3501
67.834
70.399
73.0472
75.7804
78.6
81.5078
84.505
87.5928
90.7722
94.0439
97.4087
100.867
104.418
108.063
111.801
115.631
119.552
123.565
127.666
131.856
136.133
140.494
144.938
149.464
154.069
158.752
163.511
168.343
173.246
178.219
183.258
188.36
193.522
198.741
204.011
209.329
214.689
220.084
225.508
230.949
236.379
241.789
247.169
252.51
257.801
263.034
268.199
273.287
278.288
283.191
287.986
292.66
297.202
301.598
305.834
309.895
313.765
317.428
320.868
324.067
327.007
329.672
332.041
334.095
335.818
337.193
338.203
338.836
339.078
338.919
338.355
337.381
335.997
334.212
332.032
329.461
326.529
323.26
319.672
315.791
311.653
307.289
302.727
298.002
293.147
288.193
283.17
278.108
273.035
267.974
262.95
257.984
253.093
248.295
243.604
239.03
234.583
230.272
226.101
222.074
218.194
214.461
210.874
207.431
204.128
200.96
197.922
195.007
192.207
189.514
186.919
184.415
181.992
179.641
177.355
175.125
172.944
170.804
168.701
166.63
164.588
162.575
160.589
158.625
156.679
154.725
152.801
31.3628
12.2742
8.90376
7.88686
7.58551
7.60463
7.80476
8.12389
8.5298
9.00364
9.53331
10.1105
10.7291
11.3849
12.0745
12.7957
13.5471
14.3276
15.1367
15.9745
16.8412
17.7371
18.663
19.6196
20.6078
21.6286
22.6829
23.772
24.897
26.0591
27.2597
28.5001
29.7817
31.106
32.4747
33.8894
35.3519
36.864
38.4276
40.0447
41.7175
43.4482
45.239
47.0923
49.0105
50.9962
53.0519
55.1801
57.3835
59.6647
62.0265
64.4713
67.0019
69.6208
72.3306
75.1335
78.0319
81.028
84.1239
87.3213
90.6219
94.0272
97.5384
101.156
104.882
108.715
112.657
116.706
120.863
125.127
129.496
133.97
138.546
143.224
148.001
152.875
157.845
162.907
168.06
173.3
178.627
184.036
189.525
195.091
200.729
206.437
212.208
218.038
223.92
229.846
235.811
241.805
247.795
253.766
259.704
265.6
271.441
277.219
282.924
288.544
294.071
299.494
304.802
309.985
315.032
319.929
324.665
329.227
333.599
337.766
341.714
345.426
348.887
352.08
354.989
357.593
359.873
361.812
363.393
364.599
365.417
365.828
365.825
365.398
364.54
363.253
361.542
359.415
356.879
353.956
350.668
347.036
343.087
338.853
334.364
329.652
324.752
319.698
314.521
309.256
303.931
298.578
293.222
287.89
282.603
277.383
272.247
267.21
262.285
257.484
252.815
248.283
243.895
239.651
235.554
231.601
227.792
224.122
220.586
217.179
213.893
210.72
207.652
204.68
201.795
198.989
196.251
193.573
190.948
188.366
185.822
183.31
180.826
178.369
175.938
173.53
171.138
168.756
166.348
163.952
34.4002
13.2657
9.49738
8.3284
7.94587
7.91245
8.07369
8.36115
8.73954
9.18853
9.69537
10.2515
10.8509
11.4893
12.1635
12.8715
13.6116
14.3831
15.1855
16.0187
16.8829
17.7787
18.7067
19.6678
20.6627
21.6927
22.7587
23.8621
25.0039
26.1857
27.4088
28.6747
29.9851
31.3414
32.7457
34.1996
35.7051
37.2644
38.8795
40.5528
42.2867
44.0837
45.9464
47.8776
49.88
51.9566
54.1104
56.3444
58.6617
61.0656
63.5591
66.1455
68.8279
71.6094
74.4932
77.4823
80.5794
83.7875
87.109
90.5464
94.1019
97.7773
101.574
105.495
109.539
113.708
118.002
122.422
126.966
131.635
136.426
141.339
146.372
151.523
156.788
162.167
167.656
173.252
178.952
184.754
190.654
196.649
202.735
208.909
215.165
221.498
227.902
234.37
240.895
247.465
254.072
260.7
267.302
273.867
280.382
286.836
293.217
299.512
305.711
311.802
317.777
323.623
329.329
334.886
340.282
345.506
350.547
355.391
360.026
364.437
368.609
372.53
376.186
379.563
382.646
385.417
387.854
389.942
391.665
393.007
393.954
394.486
394.593
394.267
393.5
392.292
390.644
388.562
386.056
383.14
379.833
376.158
372.141
367.81
363.197
358.335
353.257
347.999
342.594
337.077
331.48
325.834
320.169
314.51
308.884
303.311
297.812
292.403
287.099
281.912
276.851
271.924
267.135
262.489
257.986
253.626
249.406
245.323
241.372
237.546
233.839
230.242
226.747
223.345
220.026
216.782
213.602
210.477
207.4
204.363
201.359
198.384
195.434
192.507
189.603
186.719
183.848
180.982
178.077
175.181
36.8768
14.0744
9.97371
8.67422
8.21999
8.1389
8.26416
8.52199
8.8745
9.30009
9.78539
10.3216
10.9027
11.5243
12.1836
12.8785
13.6075
14.3698
15.1652
15.9936
16.8553
17.7508
18.681
19.6467
20.6489
21.6887
22.7675
23.8866
25.0474
26.2513
27.5
28.7953
30.1388
31.5325
32.9783
34.4784
36.0351
37.6507
39.3276
41.0686
42.8763
44.7537
46.7039
48.7299
50.8351
53.0229
55.2967
57.6603
60.1171
62.671
65.3258
68.0851
70.9528
73.9326
77.0283
80.2435
83.5817
87.0462
90.6403
94.3669
98.2288
102.228
106.368
110.649
115.073
119.641
124.354
129.211
134.212
139.358
144.645
150.073
155.639
161.341
167.175
173.139
179.228
185.439
191.769
198.214
204.77
211.432
218.195
225.056
232.008
239.044
246.157
253.338
260.576
267.862
275.181
282.482
289.737
296.933
304.057
311.093
318.028
324.848
331.542
338.097
344.502
350.746
356.817
362.705
368.399
373.889
379.166
384.221
389.037
393.601
397.903
401.933
405.681
409.136
412.287
415.121
417.61
419.746
421.515
422.903
423.894
424.474
424.63
424.353
423.635
422.469
420.856
418.799
416.304
413.384
410.053
406.332
402.245
397.819
393.085
388.076
382.824
377.366
371.736
365.97
360.101
354.161
348.183
342.193
336.219
330.285
324.411
318.616
312.915
307.322
301.848
296.501
291.287
286.209
281.269
276.467
271.802
267.269
262.864
258.58
254.41
250.347
246.38
242.502
238.703
234.973
231.303
227.684
224.108
220.568
217.056
213.57
210.106
206.664
203.241
199.837
196.444
193.054
189.62
186.197
38.7704
14.698
10.3354
8.92954
8.41464
8.29178
8.3847
8.61542
8.94407
9.34801
9.81339
10.3312
10.8954
11.5018
12.1474
12.8304
13.5494
14.3038
15.0934
15.9182
16.7788
17.6757
18.6099
19.5824
20.5944
21.6473
22.7424
23.8814
25.0659
26.2976
27.5784
28.9104
30.2954
31.7359
33.234
34.7924
36.4135
38.1001
39.8552
41.6818
43.5831
45.5625
47.6235
49.7699
52.0054
54.3341
56.7601
59.2875
61.9207
64.6639
67.5216
70.4981
73.598
76.8255
80.1852
83.6812
87.3177
91.0987
95.028
99.1091
103.345
107.739
112.293
117.01
121.891
126.937
132.149
137.527
143.07
148.778
154.649
160.68
166.87
173.213
179.705
186.343
193.121
200.036
207.083
214.255
221.55
228.96
236.481
244.106
251.827
259.637
267.527
275.485
283.498
291.551
299.615
307.617
315.544
323.382
331.117
338.734
346.212
353.537
360.696
367.675
374.464
381.048
387.418
393.561
399.469
405.132
410.542
415.696
420.578
425.17
429.47
433.474
437.174
440.565
443.638
446.383
448.786
450.839
452.53
453.848
454.779
455.309
455.427
455.121
454.382
453.202
451.576
449.505
446.992
444.044
440.674
436.898
432.738
428.219
423.369
418.219
412.802
407.154
401.31
395.305
389.173
382.95
376.665
370.351
364.034
357.739
351.489
345.305
339.202
333.196
327.299
321.518
315.862
310.334
304.937
299.671
294.534
289.524
284.635
279.862
275.197
270.632
266.159
261.768
257.451
253.197
248.998
244.845
240.731
236.647
232.589
228.554
224.538
220.541
216.564
212.605
208.656
204.712
200.724
196.755
40.0796
15.1379
10.5866
9.1004
8.5373
8.3798
8.44501
8.65208
8.95974
9.34468
9.79271
10.2947
10.8447
11.4384
12.0732
12.7472
13.4594
14.2091
14.9963
15.8213
16.6848
17.5877
18.5309
19.5159
20.544
21.6169
22.7363
23.904
25.122
26.3925
27.7177
29.1
30.5417
32.0457
33.6147
35.2515
36.9594
38.7416
40.6015
42.5428
44.5692
46.6847
48.8935
51.1998
53.6083
56.1236
58.7504
61.4937
64.3585
67.3496
70.4722
73.7311
77.1315
80.6786
84.3772
88.2323
92.2485
96.4303
100.782
105.308
110.01
114.894
119.96
125.212
130.65
136.277
142.092
148.095
154.285
160.661
167.221
173.961
180.88
187.968
195.22
202.632
210.197
217.909
225.762
233.75
241.865
250.102
258.452
266.908
275.462
284.103
292.82
301.6
310.429
319.283
328.064
336.752
345.329
353.78
362.093
370.249
378.217
385.984
393.537
400.862
407.945
414.773
421.334
427.617
433.613
439.314
444.714
449.807
454.585
459.042
463.175
466.982
470.463
473.616
476.439
478.93
481.081
482.889
484.346
485.446
486.178
486.531
486.493
486.054
485.201
483.926
482.221
480.08
477.505
474.497
471.064
467.219
462.979
458.366
453.404
448.124
442.556
436.734
430.692
424.467
418.092
411.602
405.03
398.407
391.762
385.12
378.506
371.941
365.443
359.027
352.706
346.49
340.387
334.402
328.538
322.795
317.172
311.668
306.276
300.992
295.808
290.717
285.711
280.78
275.916
271.11
266.352
261.635
256.952
252.295
247.661
243.047
238.451
233.873
229.313
224.773
220.245
215.726
211.167
206.641
40.8241
15.3999
10.7332
9.19378
8.5964
8.41289
8.45658
8.64502
8.93622
9.30651
9.74159
10.2324
10.7729
11.3591
11.9885
12.6594
13.3708
14.1225
14.9146
15.7478
16.6228
17.5409
18.5035
19.5123
20.5691
21.6758
22.8346
24.0478
25.3178
26.6474
28.0392
29.4962
31.0214
32.6182
34.2899
36.0402
37.8728
39.7916
41.8008
43.9048
46.108
48.4152
50.8312
53.3612
56.0105
58.7845
61.6889
64.7294
67.9119
71.2417
74.724
78.3645
82.1691
86.1432
90.2923
94.6218
99.1365
103.841
108.741
113.838
119.138
124.642
130.354
136.275
142.406
148.748
155.3
162.061
169.03
176.203
183.579
191.153
198.925
206.876
215.001
223.292
231.743
240.346
249.093
257.974
266.982
276.107
285.341
294.674
304.096
313.594
323.155
332.766
342.405
351.967
361.408
370.711
379.858
388.832
397.615
406.187
414.525
422.612
430.429
437.962
445.195
452.115
458.71
464.968
470.882
476.444
481.65
486.498
490.985
495.11
498.875
502.283
505.34
508.051
510.423
512.458
514.16
515.53
516.568
517.272
517.638
517.658
517.321
516.619
515.538
514.068
512.197
509.917
507.223
504.111
500.585
496.651
492.322
487.614
482.549
477.151
471.45
465.476
459.262
452.844
446.254
439.527
432.696
425.792
418.844
411.88
404.925
397.999
391.123
384.312
377.581
370.94
364.397
357.959
351.628
345.407
339.295
333.289
327.386
321.58
315.865
310.234
304.679
299.192
293.763
288.385
283.049
277.748
272.476
267.227
261.997
256.785
251.59
246.413
241.255
236.118
230.997
225.892
220.755
215.665
41.0467
15.4938
10.7824
9.21811
8.60222
8.40353
8.43434
8.61186
8.89398
9.25707
9.68695
10.1747
10.7145
11.3026
11.9365
12.6151
13.3375
14.1038
14.9146
15.7708
16.6737
17.625
18.6266
19.6806
20.7896
21.956
23.1824
24.4719
25.8277
27.2531
28.7517
30.3273
31.9837
33.7252
35.5559
37.4804
39.5034
41.6298
43.8646
46.2132
48.6808
51.2732
53.9962
56.8557
59.8578
63.0089
66.3154
69.7844
73.4232
77.237
81.2293
85.4069
89.7762
94.3429
99.1125
104.09
109.281
114.688
120.317
126.171
132.251
138.561
145.101
151.872
158.874
166.107
173.567
181.252
189.159
197.283
205.618
214.159
222.897
231.822
240.922
250.188
259.61
269.176
278.875
288.697
298.631
308.665
318.788
328.989
339.255
349.573
359.926
370.3
380.571
390.69
400.639
410.399
419.951
429.275
438.351
447.158
455.675
463.882
471.76
479.291
486.461
493.256
499.662
505.672
511.276
516.47
521.252
525.624
529.586
533.144
536.305
539.078
541.476
543.513
545.201
546.553
547.582
548.297
548.707
548.816
548.627
548.137
547.34
546.227
544.787
543.007
540.873
538.372
535.493
532.229
528.575
524.531
520.104
515.303
510.144
504.647
498.837
492.742
486.391
479.816
473.05
466.126
459.076
451.93
444.72
437.471
430.209
422.956
415.732
408.555
401.438
394.393
387.43
380.555
373.771
367.083
360.488
353.987
347.575
341.249
335.001
328.827
322.718
316.667
310.667
304.709
298.787
292.893
287.024
281.173
275.339
269.521
263.72
257.936
252.174
246.436
240.719
235.026
229.313
223.662
40.8209
15.4348
10.7447
9.18493
8.56921
8.36988
8.40073
8.57974
8.86533
9.23427
9.67274
10.1721
10.727
11.334
11.9912
12.6975
13.4527
14.2574
15.1126
16.02
16.9815
17.9996
19.077
20.2168
21.4227
22.6977
24.0449
25.4687
26.9733
28.5634
30.2437
32.019
33.8947
35.8761
37.9687
40.1785
42.5112
44.9731
47.5704
50.3096
53.1971
56.2396
59.4437
62.8163
66.3642
70.0943
74.0134
78.1284
82.4459
86.9718
91.7112
96.6698
101.853
107.265
112.911
118.795
124.92
131.288
137.903
144.765
151.875
159.232
166.837
174.687
182.779
191.11
199.674
208.468
217.483
226.712
236.147
245.778
255.595
265.584
275.732
286.027
296.454
306.999
317.648
328.387
339.201
350.079
361.004
371.965
382.951
393.945
404.915
415.718
426.334
436.745
446.931
456.871
466.544
475.931
485.008
493.756
502.154
510.18
517.816
525.043
531.848
538.215
544.134
549.596
554.595
559.13
563.201
566.812
569.97
572.685
574.97
576.842
578.319
579.423
580.177
580.602
580.72
580.551
580.112
579.416
578.474
577.289
575.86
574.182
572.245
570.035
567.536
564.731
561.603
558.138
554.323
550.152
545.622
540.735
535.502
529.934
524.051
517.875
511.432
504.751
497.86
490.792
483.576
476.243
468.822
461.339
453.819
446.286
438.759
431.256
423.792
416.379
409.027
401.744
394.534
387.4
380.344
373.365
366.459
359.624
352.855
346.146
339.491
332.883
326.316
319.782
313.276
306.793
300.328
293.879
287.444
281.023
274.618
268.233
261.872
255.539
249.233
242.961
236.681
230.482
40.2652
15.2472
10.6366
9.11353
8.52215
8.34363
8.39536
8.59715
8.90854
9.3071
9.77963
10.3181
10.9177
11.576
12.2921
13.065
13.8952
14.7843
15.7346
16.7486
17.8295
18.981
20.2072
21.5124
22.9014
24.3793
25.9512
27.6228
29.4001
31.2895
33.2975
35.4309
37.6967
40.1021
42.6545
45.3615
48.2305
51.2692
54.4852
57.8859
61.479
65.2716
69.2709
73.4837
77.9169
82.5768
87.4696
92.6011
97.9764
103.6
109.475
115.606
121.994
128.642
135.55
142.72
150.151
157.842
165.791
173.997
182.455
191.162
200.112
209.299
218.717
228.358
238.213
248.275
258.531
268.971
279.583
290.355
301.271
312.317
323.477
334.735
346.073
357.474
368.921
380.397
391.884
403.37
414.833
426.261
437.657
448.898
459.906
470.683
481.213
491.479
501.462
511.141
520.495
529.502
538.142
546.395
554.239
561.654
568.624
575.13
581.158
586.696
591.735
596.267
600.29
603.805
606.814
609.327
611.354
612.912
614.018
614.696
614.972
614.876
614.437
613.688
612.659
611.38
609.877
608.175
606.29
604.235
602.015
599.628
597.067
594.317
591.362
588.179
584.746
581.042
577.046
572.742
568.118
563.168
557.892
552.296
546.389
540.189
533.716
526.992
520.045
512.901
505.59
498.138
490.573
482.923
475.21
467.458
459.686
451.913
444.155
436.423
428.728
421.079
413.482
405.94
398.455
391.028
383.657
376.339
369.071
361.849
354.667
347.52
340.402
333.309
326.235
319.178
312.133
305.099
298.078
291.069
284.077
277.107
270.163
263.252
256.376
249.545
242.72
235.995
39.5868
14.9758
10.492
9.04387
8.51217
8.3899
8.49962
8.76391
9.14411
9.61915
10.177
10.8098
11.5144
12.2893
13.135
14.0528
15.045
16.115
17.2668
18.5052
19.8356
21.2639
22.7968
24.4412
26.2045
28.0945
30.1195
32.2881
34.6089
37.0912
39.7443
42.5777
45.6009
48.8234
52.2548
55.9043
59.7805
63.8922
68.247
72.8525
77.7153
82.8413
88.2357
93.9028
99.8462
106.069
112.573
119.359
126.428
133.779
141.409
149.315
157.494
165.939
174.647
183.609
192.82
202.273
211.959
221.87
231.995
242.325
252.849
263.556
274.436
285.477
296.666
307.991
319.438
330.992
342.641
354.37
366.16
377.995
389.859
401.735
413.601
425.436
437.228
448.951
460.581
472.134
483.555
494.759
505.665
516.3
526.66
536.735
546.512
555.973
565.099