/*--------------------------------*- C++ -*----------------------------------*\
| =========                 |                                                 |
| \\      /  F ield         | OpenFOAM: The Open Source CFD Toolbox           |
|  \\    /   O peration     | Version:  2.2.x                                 |
|   \\  /    A nd           | Web:      www.OpenFOAM.org                      |
|    \\/     M anipulation  |                                                 |
\*---------------------------------------------------------------------------*/
FoamFile
{
    version     2.0;
    format      ascii;
    class       volScalarField;
    location    "500";
    object      k;
}
// * * * * * * * * * * * * * * * * * * * * * * * * * * * * * * * * * * * * * //

dimensions      [0 2 -2 0 0 0 0];

internalField   nonuniform List<scalar> 
12225
(
0.773254
1.11727
1.35409
1.50336
1.59084
1.63717
1.65704
1.66038
1.6537
1.64117
1.62543
1.60815
1.59034
1.57265
1.55545
1.53893
1.52296
1.50896
0.492803
0.515897
0.520062
0.519336
0.515966
0.511063
0.505591
0.50023
0.495403
0.491339
0.488143
0.485833
0.484382
0.483734
0.483838
0.484726
0.487004
0.490615
0.412018
0.424096
0.421859
0.414169
0.404225
0.393411
0.382462
0.37181
0.361713
0.352322
0.343714
0.335916
0.328924
0.322711
0.317241
0.312479
0.30839
0.304784
0.381869
0.385949
0.386337
0.38394
0.379748
0.374467
0.368565
0.362356
0.356051
0.349798
0.343696
0.337812
0.33219
0.326857
0.321826
0.317102
0.312675
0.308543
0.375243
0.37552
0.374935
0.373413
0.371107
0.368205
0.364884
0.361287
0.357524
0.353681
0.349822
0.345997
0.34224
0.338578
0.33503
0.331609
0.328322
0.325194
0.373469
0.372204
0.370886
0.369331
0.367504
0.36543
0.363155
0.36073
0.358203
0.355612
0.352993
0.350372
0.347771
0.345207
0.342695
0.340245
0.337865
0.335582
0.372982
0.371101
0.36935
0.367627
0.365877
0.364076
0.362219
0.360315
0.358376
0.356416
0.35445
0.352488
0.350543
0.348625
0.34674
0.344895
0.343097
0.341367
0.372867
0.370792
0.36886
0.367023
0.365245
0.363499
0.36177
0.360052
0.358345
0.356649
0.354969
0.35331
0.351675
0.35007
0.348499
0.346964
0.345469
0.344034
0.372829
0.37068
0.368664
0.366759
0.364945
0.363202
0.361515
0.359876
0.358277
0.356714
0.355186
0.353694
0.352236
0.350814
0.349428
0.348081
0.346773
0.34552
0.372814
0.370635
0.368578
0.366633
0.364789
0.363033
0.361355
0.359746
0.358198
0.356705
0.355264
0.353871
0.352523
0.351219
0.349958
0.348737
0.347559
0.346434
0.372807
0.370616
0.368543
0.366578
0.364715
0.362946
0.361264
0.359661
0.35813
0.356666
0.355265
0.353921
0.352631
0.351393
0.350203
0.349059
0.34796
0.346916
0.372803
0.370607
0.368526
0.366553
0.364681
0.362903
0.361215
0.359609
0.35808
0.356624
0.355235
0.35391
0.352644
0.351434
0.350277
0.34917
0.348111
0.34711
0.3728
0.370601
0.368516
0.366539
0.364662
0.36288
0.361187
0.359577
0.358046
0.356589
0.355202
0.35388
0.35262
0.351418
0.350272
0.349177
0.348133
0.347148
0.372797
0.370597
0.36851
0.36653
0.36465
0.362865
0.361169
0.359556
0.358022
0.356563
0.355173
0.35385
0.352589
0.351388
0.350242
0.349149
0.348107
0.347125
0.372796
0.370594
0.368505
0.366523
0.364641
0.362854
0.361155
0.35954
0.358004
0.356542
0.355151
0.353825
0.352562
0.351358
0.350211
0.349116
0.348073
0.34709
0.372795
0.370592
0.368502
0.366518
0.364635
0.362846
0.361146
0.359529
0.357991
0.356527
0.355133
0.353806
0.352541
0.351335
0.350185
0.349088
0.348043
0.347059
0.372794
0.37059
0.3685
0.366515
0.364631
0.362841
0.361139
0.359521
0.357981
0.356516
0.355121
0.353792
0.352525
0.351317
0.350166
0.349068
0.348021
0.347035
0.372794
0.37059
0.368499
0.366514
0.364629
0.362838
0.361136
0.359517
0.357977
0.35651
0.355114
0.353784
0.352516
0.351308
0.350155
0.349056
0.348008
0.347022
0.372794
0.37059
0.3685
0.366515
0.36463
0.362839
0.361136
0.359517
0.357977
0.35651
0.355114
0.353783
0.352515
0.351306
0.350153
0.349054
0.348005
0.347018
0.372795
0.370591
0.368501
0.366517
0.364632
0.362842
0.36114
0.359521
0.357981
0.356515
0.355119
0.353789
0.352521
0.351312
0.35016
0.34906
0.348012
0.347026
0.372795
0.370593
0.368504
0.36652
0.364637
0.362848
0.361148
0.359531
0.357993
0.356529
0.355134
0.353806
0.35254
0.351333
0.350181
0.349082
0.348035
0.347048
0.372797
0.370596
0.368509
0.36653
0.364652
0.362869
0.361175
0.359565
0.358033
0.356575
0.355186
0.353862
0.352598
0.351392
0.350239
0.349137
0.348085
0.347091
0.3728
0.370607
0.368532
0.36657
0.364713
0.362953
0.361282
0.359692
0.358177
0.35673
0.355346
0.35402
0.352749
0.351528
0.350355
0.349228
0.348145
0.347117
0.372816
0.370662
0.368649
0.366761
0.36498
0.363289
0.361672
0.360118
0.358617
0.357163
0.355751
0.354379
0.353045
0.351748
0.350486
0.34926
0.34807
0.34693
0.372911
0.370959
0.369194
0.367544
0.365953
0.364384
0.362817
0.361246
0.359669
0.358089
0.356512
0.354944
0.35339
0.351855
0.350344
0.34886
0.347408
0.346005
0.373469
0.372367
0.371364
0.370237
0.368904
0.367357
0.365627
0.363755
0.361779
0.359733
0.357646
0.355539
0.353432
0.351339
0.349271
0.347236
0.345244
0.343315
0.376461
0.378228
0.378835
0.378173
0.37655
0.374272
0.371563
0.368577
0.365422
0.362172
0.358881
0.355588
0.352323
0.349108
0.34596
0.34289
0.33991
0.337039
0.392606
0.401341
0.402164
0.399516
0.395305
0.390342
0.385014
0.379525
0.373995
0.368503
0.363107
0.357848
0.352756
0.347855
0.343159
0.338677
0.334411
0.33037
0.438298
0.449784
0.450808
0.449577
0.447829
0.445852
0.443729
0.441506
0.439221
0.436911
0.434615
0.432368
0.430201
0.428139
0.426198
0.424382
0.422679
0.421032
0.544749
0.705345
0.836386
0.946125
1.04199
1.12366
1.19166
1.24711
1.29141
1.32605
1.35252
1.37215
1.38615
1.39556
1.40126
1.404
1.40439
1.40291
0.00846407
0.0139587
0.0177605
0.020949
0.024253
0.0275705
0.031388
0.0356414
0.0401949
0.045017
0.0500301
0.0551758
0.0604151
0.0657222
0.0710794
0.0764733
0.0818947
0.0873368
0.092795
0.0982673
0.103754
0.109256
0.11478
0.120335
0.125932
0.13159
0.137334
0.143198
0.149181
0.155225
0.161332
0.167507
0.173758
0.18009
0.186511
0.193026
0.199642
0.206366
0.213205
0.220165
0.227251
0.234471
0.241831
0.249335
0.256989
0.264798
0.272766
0.280898
0.289197
0.297666
0.306309
0.315129
0.324126
0.333302
0.34266
0.352199
0.36192
0.371822
0.381905
0.392169
0.402611
0.41323
0.424023
0.434988
0.446123
0.457423
0.468885
0.480505
0.492278
0.5042
0.516265
0.528468
0.540802
0.55326
0.565836
0.578523
0.59131
0.604191
0.617156
0.630194
0.643295
0.656448
0.66964
0.682859
0.696092
0.709325
0.722547
0.735744
0.748907
0.762027
0.775102
0.788137
0.80115
0.814183
0.827311
0.840441
0.85336
0.866048
0.87848
0.890628
0.902462
0.91395
0.925059
0.935752
0.945993
0.95574
0.964955
0.973597
0.981621
0.988985
0.995646
1.00156
1.00668
1.01098
1.0144
1.01692
1.01849
1.0191
1.01871
1.0173
1.01486
1.01139
1.00689
1.00135
0.994797
0.987255
0.978753
0.969332
0.959037
0.947921
0.936041
0.923464
0.910261
0.896505
0.882266
0.867624
0.85266
0.837446
0.822054
0.806566
0.791051
0.775566
0.760183
0.744969
0.729954
0.715206
0.700792
0.686701
0.673014
0.659817
0.64721
0.635752
0.625468
0.615581
0.605916
0.59642
0.587192
0.578276
0.569709
0.56134
0.55361
0.546281
0.539286
0.532617
0.526212
0.520118
0.514368
0.50898
0.503948
0.499312
0.495003
0.491129
0.487567
0.484248
0.480944
0.477587
0.474132
0.469961
0.465548
0.454346
0.0188732
0.0340444
0.0458834
0.0552398
0.0631944
0.0707117
0.0783171
0.0862742
0.0946334
0.103347
0.112347
0.121577
0.130994
0.140569
0.150279
0.160104
0.170032
0.18005
0.190148
0.20032
0.210561
0.220869
0.231243
0.241683
0.252193
0.262777
0.273439
0.284184
0.295014
0.305934
0.316953
0.32808
0.339328
0.350707
0.362229
0.373906
0.385751
0.397775
0.409991
0.422411
0.435048
0.447914
0.46102
0.474378
0.487999
0.501894
0.516073
0.530544
0.545318
0.560401
0.575801
0.591525
0.607579
0.623969
0.640697
0.657769
0.675186
0.692951
0.711065
0.729529
0.748343
0.767506
0.787016
0.806872
0.827071
0.84761
0.868485
0.889693
0.911229
0.933089
0.955266
0.977756
1.00055
1.02365
1.04704
1.07071
1.09467
1.11889
1.14337
1.1681
1.19307
1.21827
1.24369
1.2693
1.29511
1.32108
1.3472
1.37346
1.39984
1.42631
1.45287
1.47948
1.50614
1.53282
1.5595
1.58587
1.61205
1.63802
1.66375
1.68919
1.71429
1.739
1.76325
1.78697
1.8101
1.83257
1.85429
1.87518
1.89515
1.91411
1.93198
1.94864
1.96402
1.978
1.9905
2.00142
2.01068
2.01819
2.02388
2.02767
2.02953
2.0294
2.02725
2.02306
2.01685
2.00863
1.99842
1.98629
1.97229
1.95651
1.93904
1.91999
1.89948
1.87765
1.85463
1.83054
1.80556
1.77981
1.75344
1.72659
1.69942
1.67204
1.64457
1.61717
1.5899
1.5629
1.53628
1.51003
1.48435
1.45933
1.43502
1.41153
1.38888
1.36699
1.34586
1.32551
1.30594
1.28714
1.26911
1.25182
1.23523
1.21953
1.20465
1.19054
1.17718
1.16454
1.15261
1.14134
1.1307
1.1207
1.11102
1.10167
1.09267
1.08397
1.07547
1.06706
1.05856
1.04967
1.03962
1.02462
0.0283786
0.0552531
0.071794
0.0841274
0.0948998
0.10515
0.115412
0.125955
0.136874
0.148164
0.15978
0.171672
0.183793
0.196108
0.20859
0.221217
0.233973
0.246846
0.259826
0.272905
0.286079
0.299346
0.312705
0.326157
0.339703
0.353348
0.367096
0.380953
0.394924
0.409018
0.423246
0.43762
0.452151
0.466853
0.48174
0.496825
0.512122
0.527647
0.543414
0.559438
0.575733
0.592314
0.609196
0.626393
0.643917
0.661783
0.680002
0.698585
0.717545
0.736891
0.756631
0.776775
0.797329
0.8183
0.839693
0.861512
0.883761
0.90644
0.929551
0.953094
0.977068
1.00147
1.0263
1.05155
1.07722
1.1033
1.12978
1.15667
1.18395
1.2116
1.23964
1.26804
1.2968
1.3259
1.35534
1.38511
1.41519
1.44557
1.47625
1.50721
1.53843
1.56991
1.60162
1.63355
1.66569
1.69801
1.7305
1.76314
1.7959
1.82877
1.86172
1.89473
1.92777
1.96083
1.99368
2.02633
2.05875
2.09093
2.12282
2.15436
2.18549
2.21616
2.24628
2.27579
2.30461
2.33263
2.35978
2.38594
2.41103
2.43491
2.45749
2.47864
2.49824
2.51617
2.53232
2.54657
2.5588
2.5689
2.57678
2.58235
2.58553
2.58627
2.58452
2.58025
2.57345
2.56415
2.55237
2.53818
2.52164
2.50286
2.48195
2.45905
2.43429
2.40785
2.37988
2.35057
2.32009
2.28862
2.25635
2.22345
2.19011
2.15647
2.1227
2.08898
2.05537
2.02207
1.98927
1.95699
1.92535
1.89444
1.86433
1.83508
1.80673
1.7793
1.75281
1.72726
1.70267
1.67901
1.65627
1.63446
1.61351
1.59353
1.5745
1.55636
1.53909
1.52264
1.50696
1.49204
1.47775
1.46396
1.45063
1.43772
1.4252
1.413
1.40108
1.3893
1.37752
1.36552
1.3527
1.33767
0.0365767
0.0740662
0.0947216
0.109964
0.123121
0.135471
0.147653
0.159995
0.17265
0.185663
0.199023
0.212696
0.226641
0.240821
0.255206
0.269772
0.284498
0.299371
0.314381
0.329519
0.34478
0.360163
0.375665
0.391288
0.407033
0.422905
0.438907
0.455047
0.471331
0.487768
0.50437
0.521147
0.538112
0.55528
0.572664
0.590278
0.608139
0.626261
0.644661
0.663355
0.682359
0.701689
0.721361
0.741392
0.761796
0.782589
0.803783
0.825394
0.847433
0.869913
0.892843
0.916234
0.940095
0.964432
0.989251
1.01456
1.04036
1.06665
1.09343
1.12071
1.14848
1.17674
1.20548
1.2347
1.2644
1.29456
1.32518
1.35624
1.38774
1.41967
1.45201
1.48475
1.51788
1.55139
1.58527
1.61949
1.65405
1.68893
1.72412
1.75961
1.79537
1.8314
1.86768
1.90418
1.94089
1.9778
2.01488
2.0521
2.08945
2.1269
2.16443
2.202
2.23959
2.27717
2.31451
2.35165
2.38854
2.42516
2.46145
2.49735
2.53282
2.56777
2.60214
2.63585
2.66881
2.70092
2.73209
2.7622
2.79115
2.8188
2.84504
2.86973
2.89274
2.91393
2.93316
2.9503
2.96521
2.97777
2.98786
2.99537
3.0002
3.00228
3.00155
2.99796
2.9915
2.98218
2.97002
2.95507
2.93743
2.91719
2.89448
2.86943
2.84222
2.81304
2.78205
2.74946
2.71549
2.68034
2.64419
2.60728
2.56983
2.53195
2.49388
2.45587
2.41802
2.38048
2.3434
2.3069
2.27106
2.23599
2.20175
2.16841
2.13602
2.10462
2.07422
2.04485
2.0165
1.98918
1.96287
1.93756
1.91321
1.88982
1.86743
1.84599
1.82544
1.80574
1.78684
1.76861
1.75097
1.73387
1.71727
1.7011
1.68533
1.6699
1.65476
1.63981
1.62493
1.60996
1.59448
1.57789
0.045842
0.0903335
0.114886
0.132832
0.148131
0.162287
0.176043
0.189801
0.203771
0.218049
0.232665
0.24761
0.262859
0.278381
0.294149
0.310136
0.326323
0.342693
0.359235
0.37594
0.392801
0.409816
0.426983
0.444301
0.461773
0.479401
0.49719
0.515145
0.533275
0.551587
0.570092
0.588801
0.607727
0.626882
0.646281
0.66594
0.685873
0.706096
0.726628
0.747484
0.768682
0.79024
0.812175
0.834505
0.857247
0.880416
0.90403
0.928104
0.952651
0.977687
1.00322
1.02927
1.05584
1.08294
1.11058
1.13876
1.16749
1.19678
1.22661
1.257
1.28794
1.31942
1.35145
1.38401
1.41711
1.45071
1.48483
1.51944
1.55454
1.5901
1.62612
1.66258
1.69946
1.73676
1.77444
1.8125
1.85092
1.88968
1.92876
1.96815
2.00784
2.0478
2.08801
2.12846
2.16913
2.20999
2.25103
2.29221
2.33352
2.37493
2.4164
2.4579
2.49941
2.54083
2.58203
2.62299
2.6637
2.7041
2.74414
2.78378
2.82296
2.8616
2.89963
2.93698
2.97355
3.00926
3.044
3.07765
3.1101
3.14122
3.17088
3.19894
3.22524
3.24965
3.27201
3.29217
3.30998
3.32528
3.33795
3.34785
3.35487
3.35891
3.35989
3.35774
3.35244
3.34398
3.33237
3.31767
3.29994
3.27929
3.25585
3.22977
3.20122
3.1704
3.13752
3.10276
3.0664
3.02866
2.9897
2.94981
2.9093
2.86831
2.82704
2.78572
2.74452
2.70358
2.66305
2.62308
2.58376
2.54519
2.50746
2.47063
2.43477
2.39991
2.36608
2.3333
2.30158
2.27092
2.24131
2.21272
2.18514
2.15853
2.13289
2.10819
2.08439
2.0614
2.03913
2.01751
1.99649
1.976
1.95598
1.9364
1.9172
1.89833
1.87976
1.86141
1.84318
1.82494
1.80631
1.78699
0.0545998
0.104384
0.132312
0.152659
0.169869
0.185624
0.200753
0.215713
0.230764
0.246047
0.261629
0.277532
0.29375
0.310268
0.327063
0.344115
0.361405
0.378916
0.396637
0.414558
0.432671
0.450973
0.469461
0.488134
0.506993
0.526041
0.545281
0.564719
0.58436
0.604214
0.62429
0.644597
0.665148
0.685957
0.707036
0.728401
0.750068
0.772053
0.794373
0.817048
0.840095
0.863532
0.88738
0.911656
0.93638
0.96157
0.987245
1.01342
1.04011
1.06734
1.09512
1.12346
1.15237
1.18187
1.21197
1.24266
1.27397
1.30588
1.33842
1.37156
1.40532
1.43969
1.47466
1.51023
1.54638
1.58312
1.62042
1.65826
1.69665
1.73555
1.77495
1.81484
1.85519
1.89599
1.93721
1.97883
2.02084
2.06322
2.10593
2.14898
2.19233
2.23596
2.27986
2.324
2.36837
2.41293
2.45766
2.50253
2.54753
2.59261
2.63774
2.68289
2.72803
2.77298
2.81771
2.86218
2.90636
2.95021
2.99367
3.0367
3.07925
3.12124
3.16262
3.2033
3.2432
3.28224
3.3203
3.35728
3.39307
3.42752
3.46051
3.49189
3.52151
3.54922
3.57484
3.59822
3.61918
3.63757
3.65321
3.66597
3.67571
3.68229
3.68562
3.68561
3.68222
3.6754
3.66516
3.65153
3.63458
3.6144
3.59113
3.56489
3.53586
3.50429
3.47038
3.43425
3.39631
3.3568
3.31592
3.27394
3.23112
3.18769
3.14385
3.09982
3.0558
3.01195
2.96844
2.9254
2.88296
2.84123
2.80029
2.76023
2.72111
2.68298
2.64586
2.60978
2.57476
2.54078
2.50785
2.47594
2.44503
2.41508
2.38606
2.35793
2.33063
2.3041
2.27825
2.25302
2.22834
2.20417
2.18043
2.1571
2.13412
2.11147
2.0891
2.06696
2.04497
2.02298
2.00063
1.97773
0.0624315
0.116261
0.147047
0.169465
0.188344
0.205504
0.221838
0.237845
0.253819
0.269938
0.286299
0.302951
0.319912
0.337181
0.354749
0.372601
0.390723
0.409102
0.427725
0.446585
0.465673
0.484985
0.504518
0.524271
0.544244
0.564438
0.584857
0.605504
0.626387
0.647513
0.668889
0.690526
0.712435
0.734628
0.757121
0.779926
0.803061
0.826543
0.850388
0.874617
0.899249
0.924303
0.9498
0.975761
1.00221
1.02916
1.05663
1.08465
1.11324
1.1424
1.17217
1.20255
1.23356
1.26521
1.29752
1.33049
1.36414
1.39846
1.43346
1.46915
1.50551
1.54256
1.58028
1.61866
1.6577
1.69738
1.7377
1.77862
1.82014
1.86224
1.9049
1.94808
1.99178
2.03596
2.08061
2.12569
2.17119
2.21708
2.26334
2.30994
2.35686
2.40407
2.45156
2.49929
2.54725
2.5954
2.64372
2.69217
2.74072
2.78934
2.83799
2.88663
2.93521
2.98353
3.03159
3.07935
3.12677
3.17381
3.22044
3.26661
3.31226
3.35733
3.40178
3.44552
3.48849
3.5306
3.57176
3.61185
3.65078
3.68841
3.72461
3.75923
3.79213
3.82315
3.85211
3.87884
3.90316
3.92488
3.94383
3.95983
3.97273
3.98237
3.98862
3.99136
3.99053
3.98605
3.97791
3.96612
3.95071
3.93178
3.90945
3.88385
3.8551
3.82355
3.78938
3.75279
3.71409
3.67355
3.63142
3.58796
3.54344
3.4981
3.45218
3.40589
3.35946
3.31306
3.26687
3.22105
3.17572
3.13102
3.08703
3.04386
3.00156
2.96019
2.9198
2.8804
2.84201
2.80463
2.76825
2.73286
2.69841
2.66489
2.63224
2.60041
2.56935
2.53899
2.50926
2.48009
2.45142
2.4232
2.39538
2.3679
2.34075
2.3139
2.28731
2.26096
2.23475
2.20853
2.18191
2.15479
0.0692457
0.12608
0.159226
0.18338
0.203672
0.222034
0.239404
0.25631
0.273073
0.289892
0.30689
0.324138
0.341673
0.359511
0.377655
0.396101
0.414839
0.433862
0.453161
0.472728
0.492558
0.512645
0.532987
0.553582
0.574431
0.595534
0.616895
0.638517
0.660405
0.682567
0.70501
0.727745
0.750781
0.774131
0.797809
0.82183
0.846209
0.870966
0.896117
0.921684
0.947685
0.974144
1.00108
1.02852
1.05648
1.08499
1.11407
1.14374
1.17402
1.20493
1.2365
1.26875
1.30168
1.33531
1.36967
1.40476
1.44059
1.47717
1.5145
1.55259
1.59144
1.63104
1.6714
1.71249
1.75432
1.79687
1.84012
1.88405
1.92865
1.97389
2.01975
2.0662
2.11321
2.16076
2.20882
2.25735
2.30632
2.35572
2.40551
2.45565
2.50613
2.55692
2.60797
2.65928
2.71081
2.76252
2.81438
2.86635
2.91841
2.9705
3.02258
3.07461
3.12648
3.17803
3.22924
3.28009
3.33053
3.38055
3.43008
3.47911
3.52757
3.57543
3.62264
3.66913
3.71484
3.7597
3.80364
3.84655
3.88833
3.92887
3.96805
4.00572
4.04174
4.07596
4.1082
4.13829
4.16602
4.1912
4.21364
4.23315
4.24955
4.26263
4.27224
4.27825
4.28054
4.279
4.2736
4.26432
4.25114
4.23417
4.21354
4.18935
4.16176
4.13104
4.09739
4.06105
4.02229
3.98139
3.93861
3.89424
3.84855
3.80179
3.75422
3.70608
3.65758
3.60895
3.56035
3.51197
3.46395
3.41642
3.3695
3.32328
3.27784
3.23325
3.18954
3.14675
3.1049
3.06399
3.024
2.98493
2.94674
2.90939
2.87284
2.83704
2.80192
2.76743
2.73349
2.70004
2.66703
2.6344
2.6021
2.57011
2.53839
2.50694
2.47573
2.44474
2.41387
2.38298
2.35163
2.31983
0.0750346
0.133969
0.169009
0.194575
0.216025
0.235377
0.253606
0.27126
0.288676
0.306069
0.323577
0.341289
0.359259
0.377517
0.396077
0.414945
0.434121
0.453601
0.47338
0.493455
0.513822
0.534477
0.555418
0.576645
0.598157
0.619957
0.642046
0.66443
0.687112
0.710099
0.7334
0.757024
0.780981
0.805285
0.829948
0.854987
0.880417
0.906257
0.932527
0.959247
0.98644
1.01413
1.04233
1.07108
1.1004
1.13031
1.16083
1.192
1.22384
1.25637
1.28961
1.32358
1.35832
1.39382
1.43012
1.46722
1.50514
1.54389
1.58347
1.62389
1.66516
1.70726
1.7502
1.79397
1.83856
1.88394
1.93012
1.97705
2.02473
2.07313
2.12221
2.17195
2.22231
2.27326
2.32476
2.37678
2.42928
2.48223
2.53559
2.58932
2.6434
2.69779
2.75245
2.80734
2.86245
2.91772
2.97312
3.0286
3.08411
3.13962
3.19507
3.2504
3.3054
3.36
3.41418
3.4679
3.52114
3.57384
3.62599
3.67756
3.72849
3.77877
3.82834
3.87718
3.92522
3.97241
4.0187
4.064
4.10822
4.15127
4.19303
4.23339
4.27221
4.30935
4.34465
4.37792
4.40896
4.43755
4.46351
4.48663
4.5067
4.52347
4.53677
4.54642
4.55227
4.55418
4.55208
4.54592
4.53568
4.52142
4.50323
4.48122
4.45553
4.42637
4.39397
4.35855
4.32039
4.27976
4.23693
4.1922
4.14585
4.09815
4.04936
3.99975
3.94955
3.89898
3.84825
3.79754
3.74701
3.69681
3.64707
3.59789
3.54935
3.50154
3.45449
3.40826
3.36285
3.31828
3.27454
3.23161
3.18947
3.14807
3.10738
3.06734
3.02789
2.98898
2.95053
2.91249
2.87482
2.83744
2.80034
2.76348
2.72685
2.69045
2.65426
2.61826
2.58237
2.54643
2.51001
2.47317
0.0798134
0.140054
0.176558
0.203234
0.225595
0.245727
0.264635
0.282879
0.300807
0.318643
0.336537
0.35459
0.372868
0.391412
0.410248
0.429389
0.448845
0.468617
0.488706
0.509113
0.529834
0.550871
0.572223
0.59389
0.615873
0.638175
0.660799
0.683749
0.707031
0.730653
0.754621
0.778947
0.803641
0.828716
0.854187
0.880069
0.90638
0.93314
0.960368
0.988088
1.01632
1.04509
1.07443
1.10436
1.1349
1.1661
1.19796
1.23052
1.26382
1.29786
1.33269
1.36832
1.40478
1.44209
1.48027
1.51933
1.5593
1.60018
1.64199
1.68472
1.72839
1.773
1.81853
1.86498
1.91235
1.96061
2.00974
2.05972
2.11054
2.16214
2.21451
2.26761
2.32139
2.37582
2.43085
2.48644
2.54254
2.59912
2.65613
2.71352
2.77126
2.8293
2.88761
2.94613
3.00483
3.06367
3.12259
3.18155
3.24049
3.29934
3.35805
3.41652
3.4745
3.53196
3.58887
3.64521
3.70094
3.75601
3.81042
3.86413
3.91712
3.96935
4.02082
4.07149
4.12133
4.17031
4.21839
4.26551
4.31161
4.3566
4.40039
4.4429
4.48401
4.52361
4.56155
4.59766
4.63169
4.66346
4.69277
4.71941
4.74318
4.76372
4.78086
4.7944
4.80415
4.80994
4.81165
4.8092
4.80253
4.79164
4.77658
4.75743
4.73433
4.70744
4.67696
4.64314
4.60622
4.56647
4.52419
4.47965
4.43316
4.38501
4.33546
4.28479
4.23326
4.1811
4.12853
4.07575
4.02294
3.97025
3.91783
3.86579
3.81424
3.76324
3.71287
3.66316
3.61415
3.56584
3.51823
3.47132
3.42507
3.37945
3.33442
3.28993
3.24593
3.20235
3.15915
3.11627
3.07366
3.03127
2.98909
2.94709
2.90526
2.86362
2.82216
2.78087
2.73966
2.69841
2.65664
2.61454
0.0836087
0.144457
0.182036
0.209541
0.232579
0.25329
0.272696
0.291369
0.309663
0.327808
0.345962
0.364233
0.382695
0.401399
0.42038
0.43966
0.459254
0.47917
0.499415
0.519993
0.540906
0.562156
0.583747
0.60568
0.627958
0.650585
0.673567
0.696908
0.720615
0.744696
0.769162
0.794021
0.819288
0.844975
0.871098
0.897674
0.924723
0.952264
0.98032
1.00891
1.03807
1.06782
1.09819
1.1292
1.16089
1.19329
1.22642
1.26032
1.29501
1.33054
1.36691
1.40417
1.44234
1.48144
1.5215
1.56254
1.60457
1.6476
1.69166
1.73675
1.78287
1.83002
1.8782
1.92741
1.97762
2.02883
2.081
2.13413
2.18816
2.24308
2.29884
2.3554
2.41272
2.47073
2.5294
2.58866
2.64847
2.70877
2.76951
2.83064
2.8921
2.95385
3.01584
3.07801
3.14031
3.2027
3.26511
3.32748
3.38975
3.45185
3.51371
3.57505
3.63576
3.69581
3.75516
3.81378
3.87163
3.92868
3.9849
4.04028
4.09481
4.14846
4.20124
4.25313
4.30412
4.35421
4.40339
4.45164
4.4989
4.5451
4.59021
4.63415
4.67686
4.71825
4.75822
4.79662
4.83315
4.86767
4.89998
4.92986
4.95705
4.98129
5.00231
5.01989
5.03379
5.04379
5.04973
5.05145
5.04887
5.04192
5.03061
5.01497
4.9951
4.97114
4.94326
4.91169
4.87665
4.83842
4.79727
4.75352
4.70744
4.65934
4.60952
4.55825
4.5058
4.45242
4.39835
4.34381
4.28898
4.23404
4.17914
4.12442
4.06997
4.01589
3.96225
3.90911
3.85649
3.80442
3.75291
3.70193
3.65149
3.60153
3.55204
3.50296
3.45424
3.40584
3.35771
3.30979
3.26206
3.21447
3.16701
3.11966
3.07244
3.02535
2.97842
2.93164
2.88493
2.83819
2.79092
2.74341
0.0864568
0.147303
0.185598
0.213674
0.237175
0.258271
0.278002
0.296945
0.315457
0.333774
0.352058
0.370421
0.388946
0.407689
0.426691
0.445982
0.465583
0.485508
0.505768
0.526373
0.547329
0.568641
0.590316
0.612358
0.634774
0.657569
0.68075
0.704325
0.728303
0.752693
0.777507
0.802757
0.828457
0.854622
0.881271
0.908422
0.936096
0.964314
0.993102
1.02249
1.05249
1.08315
1.11449
1.14654
1.17933
1.21291
1.24729
1.28252
1.31862
1.35564
1.39359
1.43252
1.47244
1.51339
1.55539
1.59847
1.64263
1.68791
1.73432
1.78185
1.83053
1.88034
1.93129
1.98337
2.03656
2.09084
2.14619
2.20259
2.25999
2.31835
2.37764
2.4378
2.49877
2.5605
2.62292
2.68597
2.74958
2.81369
2.87823
2.94315
3.00838
3.07386
3.13952
3.20532
3.27118
3.33704
3.40283
3.46848
3.53393
3.59906
3.66375
3.72766
3.79076
3.85303
3.91443
3.97491
4.03442
4.09293
4.15043
4.20691
4.26236
4.31679
4.37019
4.42258
4.47396
4.52437
4.57382
4.62237
4.66995
4.71651
4.76204
4.80656
4.85001
4.89234
4.93348
4.9733
5.01161
5.04825
5.08302
5.1157
5.14603
5.17374
5.19853
5.22014
5.23828
5.25268
5.26312
5.26939
5.27133
5.26882
5.2618
5.25026
5.23425
5.21386
5.18923
5.16055
5.12805
5.09197
5.0526
5.01023
4.96515
4.91767
4.86809
4.81671
4.76381
4.70965
4.65448
4.59854
4.54202
4.48512
4.42801
4.37082
4.31367
4.25668
4.19991
4.14343
4.08729
4.03151
3.97611
3.92109
3.86642
3.8121
3.75809
3.70435
3.65085
3.59754
3.54439
3.49134
3.43838
3.38548
3.33262
3.27983
3.2271
3.17446
3.12195
3.06957
3.01726
2.96494
2.91212
2.85916
0.0884027
0.148714
0.187399
0.21581
0.239573
0.260875
0.280764
0.299821
0.318407
0.33676
0.355044
0.373377
0.391844
0.410507
0.429412
0.448595
0.468081
0.487891
0.508041
0.528543
0.54941
0.57065
0.592274
0.614291
0.636708
0.659536
0.682784
0.706463
0.730585
0.755161
0.780206
0.805735
0.831764
0.858312
0.885399
0.913046
0.941276
0.970114
0.999588
1.02973
1.06056
1.09211
1.12442
1.15753
1.19146
1.22625
1.26195
1.29857
1.33617
1.37477
1.41441
1.45511
1.49692
1.53985
1.58395
1.62922
1.67569
1.72338
1.7723
1.82247
1.87388
1.92654
1.98044
2.03558
2.09192
2.14946
2.20817
2.268
2.32893
2.3909
2.45386
2.51777
2.58255
2.64812
2.7144
2.78132
2.8488
2.91677
2.98515
3.05386
3.12283
3.19198
3.26124
3.33054
3.3998
3.46895
3.53791
3.60659
3.67491
3.74274
3.8097
3.87572
3.94073
4.0047
4.0676
4.12941
4.18998
4.24933
4.30745
4.36434
4.42
4.47443
4.52767
4.57973
4.63065
4.68047
4.72926
4.77705
4.82387
4.86974
4.91469
4.95875
5.00193
5.04422
5.08559
5.12595
5.16519
5.20317
5.2397
5.27457
5.30755
5.33832
5.3666
5.39207
5.41439
5.43326
5.44836
5.45943
5.46624
5.46859
5.46635
5.45946
5.44789
5.43168
5.41095
5.38583
5.35652
5.32327
5.28632
5.24597
5.20251
5.15625
5.10751
5.05657
5.00373
4.94928
4.89348
4.83656
4.77875
4.72026
4.66125
4.6019
4.54233
4.48265
4.42297
4.36334
4.30383
4.24448
4.1853
4.12631
4.0675
4.00887
3.95038
3.89202
3.83374
3.77553
3.71734
3.65916
3.60096
3.54273
3.48447
3.4262
3.36795
3.30975
3.25164
3.19366
3.13574
3.07786
3.01952
2.96114
0.0895048
0.148816
0.187589
0.216117
0.239958
0.261299
0.281188
0.300213
0.318734
0.336992
0.355152
0.373335
0.391629
0.410101
0.4288
0.447765
0.467029
0.486614
0.506543
0.526832
0.547499
0.568557
0.590021
0.611904
0.634218
0.656977
0.680194
0.703884
0.728062
0.752745
0.777949
0.803695
0.830001
0.85689
0.884386
0.912512
0.941297
0.970768
1.00095
1.03189
1.0636
1.09613
1.12951
1.16378
1.19898
1.23513
1.27229
1.3105
1.34978
1.39018
1.43172
1.47444
1.51837
1.56355
1.60999
1.65772
1.70677
1.75715
1.80887
1.86194
1.91636
1.97214
2.02925
2.0877
2.14745
2.20847
2.27075
2.33422
2.39886
2.4646
2.53139
2.59916
2.66788
2.73738
2.80758
2.87839
2.94974
3.02153
3.09366
3.16605
3.23861
3.31124
3.38386
3.45639
3.52873
3.60079
3.67248
3.74373
3.81439
3.88412
3.95274
4.02019
4.08641
4.15136
4.215
4.27727
4.33811
4.3975
4.45542
4.51188
4.56687
4.62043
4.67258
4.72337
4.77285
4.8211
4.86819
4.91422
4.95924
5.00335
5.04661
5.08912
5.13093
5.17209
5.21263
5.25252
5.29171
5.3301
5.36754
5.40386
5.43881
5.47211
5.50343
5.53243
5.55875
5.58199
5.6018
5.61783
5.62975
5.63732
5.6403
5.63855
5.63198
5.62057
5.60437
5.58348
5.55806
5.52831
5.49448
5.45683
5.41566
5.37128
5.32399
5.27411
5.22193
5.16774
5.11182
5.05443
4.9958
4.93615
4.87567
4.81453
4.75288
4.69084
4.62853
4.56602
4.50339
4.44068
4.37793
4.31515
4.25236
4.18955
4.12671
4.06384
4.0009
3.93788
3.87476
3.81152
3.74816
3.68469
3.6211
3.55744
3.49374
3.43006
3.36644
3.30294
3.23951
3.17616
3.11243
3.04876
0.0898415
0.14774
0.18632
0.214761
0.238509
0.259733
0.279481
0.298338
0.316667
0.334709
0.352631
0.370555
0.388573
0.406754
0.425151
0.443806
0.462756
0.482028
0.50165
0.521644
0.54203
0.56283
0.584062
0.605745
0.627898
0.650537
0.67368
0.697347
0.721558
0.746335
0.7717
0.797677
0.824292
0.85157
0.87954
0.908232
0.937676
0.967904
0.998951
1.03085
1.06364
1.09736
1.13204
1.16773
1.20447
1.24228
1.28123
1.32135
1.36269
1.40527
1.44912
1.49425
1.54072
1.58855
1.63777
1.68839
1.74043
1.79391
1.84883
1.9052
1.96302
2.02227
2.08294
2.14501
2.20845
2.27323
2.3393
2.40661
2.47512
2.54474
2.61542
2.68708
2.75962
2.83295
2.90694
2.98149
3.0565
3.13186
3.20746
3.28319
3.35894
3.4346
3.51008
3.58526
3.66004
3.73433
3.80803
3.88101
3.95292
4.0236
4.09295
4.16092
4.22744
4.29243
4.35587
4.41769
4.47784
4.53631
4.59306
4.6481
4.70145
4.75312
4.80317
4.85166
4.89867
4.94428
4.98861
5.03179
5.07392
5.11515
5.1556
5.19541
5.23471
5.27362
5.31221
5.35054
5.38861
5.4264
5.4638
5.50068
5.53682
5.57195
5.60575
5.63784
5.66782
5.69525
5.7197
5.74075
5.75798
5.77104
5.77962
5.78348
5.78246
5.77644
5.76542
5.74944
5.7286
5.70308
5.67309
5.63887
5.60072
5.55892
5.51378
5.46562
5.41474
5.36144
5.30601
5.24872
5.18981
5.12952
5.06805
5.00558
4.94229
4.8783
4.81373
4.7487
4.68327
4.61751
4.55147
4.48517
4.41865
4.35191
4.28495
4.21777
4.15037
4.08274
4.01487
3.94677
3.87843
3.80988
3.74115
3.67227
3.6033
3.53431
3.46536
3.39651
3.32776
3.25913
3.19021
3.12146
0.0895243
0.145631
0.183751
0.211913
0.235408
0.256376
0.275854
0.294425
0.312451
0.330173
0.34776
0.365336
0.382994
0.400807
0.418832
0.437113
0.45569
0.474596
0.493864
0.513522
0.533598
0.554118
0.575108
0.596596
0.61861
0.641168
0.664287
0.687998
0.712327
0.737304
0.762958
0.78932
0.816421
0.844294
0.872972
0.902492
0.932888
0.964199
0.996462
1.02972
1.064
1.09936
1.13582
1.17344
1.21224
1.25228
1.29359
1.3362
1.38017
1.4255
1.47224
1.5204
1.57002
1.62111
1.67369
1.72777
1.78336
1.84047
1.8991
1.95923
2.02086
2.08397
2.14854
2.21452
2.28189
2.3506
2.42059
2.49181
2.56418
2.63764
2.71209
2.78745
2.8636
2.94045
3.01786
3.09572
3.1739
3.25228
3.33072
3.40909
3.48726
3.56512
3.64254
3.71939
3.79558
3.87098
3.94546
4.01866
4.0905
4.16091
4.22979
4.29707
4.36267
4.42653
4.48859
4.5488
4.60711
4.66349
4.71793
4.77043
4.821
4.86967
4.91652
4.96161
5.00503
5.04692
5.0874
5.12663
5.16478
5.20202
5.23855
5.27455
5.31021
5.34573
5.38126
5.41692
5.4528
5.48894
5.5253
5.56181
5.59828
5.63449
5.6701
5.70474
5.73798
5.76933
5.79828
5.82433
5.84698
5.86577
5.8803
5.89021
5.89525
5.89523
5.89004
5.87965
5.86413
5.84359
5.8182
5.78819
5.75381
5.71535
5.67312
5.62742
5.57856
5.52685
5.47258
5.41603
5.35746
5.29713
5.23523
5.17198
5.10755
5.0421
4.97575
4.90863
4.84082
4.77241
4.70346
4.63401
4.5641
4.49376
4.42299
4.35182
4.28026
4.20831
4.13598
4.06328
3.99025
3.9169
3.84329
3.76947
3.6955
3.62147
3.54746
3.47354
3.39973
3.32611
3.25227
3.17874
0.0887236
0.142669
0.180071
0.207771
0.230869
0.251456
0.270556
0.288745
0.306382
0.323709
0.340895
0.358063
0.375311
0.392718
0.410353
0.428251
0.446454
0.465007
0.483949
0.503317
0.523146
0.54347
0.564324
0.58574
0.607753
0.630394
0.653696
0.677692
0.70242
0.727915
0.754215
0.781359
0.809386
0.838336
0.868251
0.899171
0.931139
0.964196
0.998383
1.03374
1.07031
1.10813
1.14724
1.18767
1.22947
1.27265
1.31726
1.36333
1.41088
1.45993
1.5105
1.5626
1.61625
1.67145
1.72819
1.78649
1.84632
1.90769
1.97058
2.03496
2.10082
2.16811
2.23679
2.30683
2.37817
2.45075
2.52452
2.59939
2.6753
2.75215
2.82985
2.90829
2.98737
3.06695
3.14692
3.22712
3.30743
3.3877
3.46777
3.5475
3.62674
3.70534
3.78316
3.86007
3.93598
4.01063
4.08382
4.15555
4.22574
4.29431
4.36117
4.42624
4.48943
4.55069