/*--------------------------------*- C++ -*----------------------------------*\
| =========                 |                                                 |
| \\      /  F ield         | OpenFOAM: The Open Source CFD Toolbox           |
|  \\    /   O peration     | Version:  2.2.x                                 |
|   \\  /    A nd           | Web:      www.OpenFOAM.org                      |
|    \\/     M anipulation  |                                                 |
\*---------------------------------------------------------------------------*/
FoamFile
{
    version     2.0;
    format      ascii;
    class       volScalarField;
    location    "500";
    object      nut;
}
// * * * * * * * * * * * * * * * * * * * * * * * * * * * * * * * * * * * * * //

dimensions      [0 2 -1 0 0 0 0];

internalField   nonuniform List<scalar> 
12225
(
3.09428e-05
3.71944e-05
4.0947e-05
4.3145e-05
4.43825e-05
4.50241e-05
4.52965e-05
4.53422e-05
4.52509e-05
4.50791e-05
4.48624e-05
4.46232e-05
4.43755e-05
4.4128e-05
4.38859e-05
4.36523e-05
4.34252e-05
4.3225e-05
0.000116613
6.93683e-05
5.16054e-05
4.24151e-05
3.71543e-05
3.39214e-05
3.18293e-05
3.04305e-05
2.94811e-05
2.88386e-05
2.84149e-05
2.81527e-05
2.80133e-05
2.79693e-05
2.8001e-05
2.80923e-05
2.82293e-05
2.83721e-05
0.000365114
0.000223244
0.00016246
0.000127918
0.000106043
9.12488e-05
8.07081e-05
7.28837e-05
6.68863e-05
6.21712e-05
5.83882e-05
5.53036e-05
5.27555e-05
5.06283e-05
4.88359e-05
4.73081e-05
4.5975e-05
4.48109e-05
0.000644612
0.000479081
0.000378705
0.000313455
0.000268362
0.000235799
0.000211409
0.000192577
0.000177665
0.000165606
0.000155679
0.000147382
0.000140356
0.000134338
0.00012913
0.000124577
0.00012056
0.000117071
0.00078927
0.000696801
0.000611921
0.000542058
0.000486088
0.000441357
0.000405322
0.000375947
0.000351702
0.00033145
0.000314345
0.000299751
0.000287186
0.000276279
0.000266741
0.000258347
0.00025093
0.000244462
0.000836147
0.000802044
0.000758906
0.000713893
0.000670974
0.000631894
0.000597116
0.000566486
0.000539605
0.000516014
0.000495268
0.000476968
0.000460768
0.000446376
0.000433544
0.000422068
0.000411794
0.000402706
0.000848366
0.000838516
0.000822835
0.000802889
0.00078049
0.000757167
0.000734001
0.00071167
0.000690551
0.000670822
0.000652536
0.00063567
0.000620158
0.000605916
0.000592851
0.000580874
0.000569911
0.000560013
0.000850836
0.000847527
0.000841612
0.000833097
0.000822399
0.000810108
0.000796818
0.000783037
0.000769161
0.000755481
0.000742196
0.000729435
0.000717276
0.00070576
0.000694902
0.000684703
0.000675162
0.000666398
0.000851475
0.000850225
0.000848001
0.000844578
0.000839914
0.00083411
0.000827357
0.000819877
0.000811892
0.0008036
0.000795171
0.000786739
0.00077841
0.000770264
0.00076236
0.000754741
0.000747445
0.000740602
0.000851641
0.00085103
0.000850151
0.000848867
0.000847086
0.000844765
0.00084191
0.000838562
0.000834786
0.00083066
0.000826263
0.000821672
0.000816956
0.000812178
0.000807389
0.000802634
0.000797957
0.000793465
0.000851672
0.000851219
0.000850723
0.000850138
0.000849416
0.00084852
0.000847424
0.000846118
0.000844601
0.000842885
0.000840988
0.000838933
0.000836746
0.000834454
0.000832082
0.000829655
0.000827201
0.000824786
0.000851674
0.000851249
0.000850836
0.000850423
0.000849996
0.000849539
0.000849039
0.000848485
0.000847868
0.000847184
0.000846432
0.000845613
0.00084473
0.000843789
0.000842796
0.00084176
0.000840691
0.000839621
0.000851671
0.000851248
0.000850846
0.000850464
0.000850096
0.000849738
0.000849386
0.000849034
0.00084868
0.000848319
0.000847948
0.000847565
0.000847169
0.00084676
0.000846336
0.0008459
0.000845454
0.000845015
0.000851668
0.000851243
0.000850841
0.00085046
0.000850099
0.000849756
0.000849428
0.000849115
0.000848814
0.000848524
0.000848243
0.000847969
0.000847702
0.000847441
0.000847184
0.000846931
0.000846683
0.000846452
0.000851666
0.000851239
0.000850835
0.000850452
0.00085009
0.000849747
0.00084942
0.000849111
0.000848816
0.000848535
0.000848267
0.000848011
0.000847766
0.000847532
0.000847307
0.000847091
0.000846886
0.000846702
0.000851665
0.000851236
0.000850831
0.000850447
0.000850082
0.000849737
0.000849409
0.000849098
0.000848802
0.00084852
0.000848252
0.000847997
0.000847753
0.00084752
0.000847298
0.000847086
0.000846885
0.000846707
0.000851664
0.000851235
0.000850828
0.000850443
0.000850077
0.000849731
0.000849402
0.000849089
0.000848791
0.000848508
0.000848238
0.000847981
0.000847736
0.000847501
0.000847278
0.000847064
0.000846863
0.000846684
0.000851664
0.000851234
0.000850827
0.000850441
0.000850075
0.000849728
0.000849398
0.000849084
0.000848786
0.000848502
0.000848231
0.000847972
0.000847726
0.00084749
0.000847265
0.000847051
0.000846848
0.000846668
0.000851664
0.000851235
0.000850828
0.000850442
0.000850076
0.000849729
0.000849398
0.000849084
0.000848785
0.000848501
0.000848229
0.00084797
0.000847722
0.000847485
0.000847259
0.000847043
0.000846838
0.000846656
0.000851665
0.000851236
0.00085083
0.000850444
0.000850079
0.000849731
0.0008494
0.000849085
0.000848785
0.000848497
0.000848221
0.000847957
0.000847702
0.000847457
0.000847221
0.000846993
0.000846775
0.000846577
0.000851666
0.000851238
0.000850832
0.000850446
0.000850077
0.000849724
0.000849384
0.000849053
0.00084873
0.000848413
0.000848099
0.000847786
0.000847474
0.000847162
0.000846847
0.000846532
0.000846217
0.000845913
0.000851667
0.000851237
0.000850823
0.000850417
0.00085001
0.000849591
0.000849153
0.000848687
0.000848188
0.00084765
0.000847071
0.000846451
0.000845789
0.000845089
0.000844352
0.000843582
0.000842786
0.000841983
0.000851661
0.000851195
0.000850681
0.000850075
0.000849336
0.00084843
0.000847338
0.000846049
0.000844566
0.000842897
0.000841057
0.000839067
0.000836948
0.000834721
0.000832409
0.000830033
0.000827615
0.000825199
0.00085157
0.000850737
0.000849405
0.000847416
0.000844691
0.000841227
0.000837079
0.000832337
0.000827109
0.000821505
0.00081563
0.00080958
0.000803436
0.000797267
0.00079113
0.00078507
0.000779126
0.000773373
0.000850707
0.000847137
0.000840905
0.00083209
0.000821118
0.000808558
0.000794975
0.000780857
0.000766586
0.000752448
0.000738645
0.000725311
0.000712532
0.000700355
0.0006888
0.000677869
0.000667557
0.000657902
0.000844113
0.000825223
0.000798528
0.000767728
0.000735645
0.000704126
0.000674213
0.000646391
0.000620818
0.000597471
0.00057623
0.000556934
0.00053941
0.000523484
0.000508993
0.000495791
0.000483744
0.000472783
0.000803425
0.000727157
0.000652717
0.000587761
0.000532937
0.000487151
0.000448892
0.000416745
0.000389538
0.000366337
0.000346406
0.000329162
0.000314145
0.000300985
0.000289389
0.000279117
0.000269981
0.000261844
0.000625871
0.000466123
0.000370233
0.000306327
0.000260958
0.000227475
0.000201978
0.000182051
0.000166146
0.000153226
0.000142576
0.000133682
0.000126173
0.000119771
0.000114265
0.000109498
0.000105348
0.000101737
0.000254186
0.000158464
0.000118168
9.48466e-05
7.98509e-05
6.9648e-05
6.24025e-05
5.70855e-05
5.3084e-05
5.00117e-05
4.76148e-05
4.57202e-05
4.42069e-05
4.29879e-05
4.19999e-05
4.11955e-05
4.05394e-05
4.00111e-05
3.69327e-05
4.20256e-05
4.57632e-05
4.86729e-05
5.10792e-05
5.30432e-05
5.46248e-05
5.58812e-05
5.6865e-05
5.76228e-05
5.81949e-05
5.86158e-05
5.89141e-05
5.91137e-05
5.92343e-05
5.92921e-05
5.93005e-05
5.92692e-05
5.42256e-06
1.49197e-05
1.68202e-05
1.82601e-05
1.96378e-05
2.09285e-05
2.2323e-05
2.37774e-05
2.52403e-05
2.67001e-05
2.81351e-05
2.9533e-05
3.0889e-05
3.22019e-05
3.34725e-05
3.47024e-05
3.58939e-05
3.70489e-05
3.817e-05
3.92596e-05
4.03202e-05
4.13543e-05
4.23648e-05
4.33547e-05
4.43274e-05
4.52867e-05
4.62373e-05
4.71848e-05
4.81359e-05
4.90768e-05
5.00078e-05
5.09304e-05
5.1846e-05
5.27557e-05
5.36609e-05
5.45625e-05
5.54616e-05
5.63592e-05
5.72561e-05
5.81532e-05
5.90511e-05
5.99507e-05
6.08523e-05
6.17566e-05
6.26639e-05
6.35746e-05
6.4489e-05
6.54073e-05
6.63297e-05
6.72561e-05
6.81867e-05
6.91215e-05
7.00604e-05
7.10033e-05
7.19501e-05
7.29005e-05
7.38542e-05
7.48111e-05
7.57708e-05
7.67329e-05
7.76973e-05
7.86634e-05
7.96309e-05
8.05994e-05
8.15685e-05
8.25376e-05
8.35065e-05
8.44746e-05
8.54414e-05
8.64066e-05
8.73696e-05
8.83298e-05
8.92869e-05
9.02402e-05
9.11893e-05
9.21335e-05
9.30724e-05
9.40054e-05
9.49318e-05
9.58511e-05
9.67625e-05
9.76655e-05
9.85593e-05
9.94431e-05
0.000100316
0.000101178
0.000102028
0.000102866
0.00010369
0.000104501
0.000105299
0.000106083
0.000106855
0.000107618
0.000108376
0.000109134
0.00010987
0.000110582
0.000111271
0.000111936
0.000112574
0.000113184
0.000113766
0.000114317
0.000114837
0.000115322
0.000115772
0.000116185
0.000116559
0.000116892
0.000117181
0.000117425
0.000117622
0.00011777
0.000117867
0.000117911
0.0001179
0.000117833
0.000117708
0.000117525
0.000117282
0.000116978
0.000116613
0.000116187
0.000115701
0.000115154
0.000114548
0.000113884
0.000113164
0.00011239
0.000111564
0.00011069
0.000109771
0.00010881
0.00010781
0.000106777
0.000105713
0.000104623
0.000103511
0.000102382
0.00010124
0.000100087
9.89306e-05
9.7773e-05
9.66147e-05
9.5466e-05
9.43301e-05
9.31979e-05
9.20919e-05
9.1018e-05
8.99981e-05
8.91788e-05
8.8505e-05
8.77066e-05
8.68728e-05
8.60145e-05
8.51672e-05
8.43464e-05
8.35645e-05
8.27763e-05
8.20476e-05
8.13599e-05
8.06977e-05
8.00552e-05
7.94066e-05
7.87691e-05
7.81545e-05
7.75691e-05
7.70031e-05
7.64972e-05
7.59747e-05
7.55126e-05
7.50775e-05
7.46561e-05
7.41802e-05
7.36792e-05
7.32163e-05
7.27337e-05
7.22418e-05
7.12445e-05
8.095e-06
4.79503e-05
9.06297e-05
0.000118024
0.000133518
0.000142861
0.000149444
0.000155225
0.000161093
0.000167318
0.00017394
0.000180919
0.000188195
0.000195705
0.000203393
0.000211211
0.000219113
0.00022706
0.000235019
0.000242956
0.000250846
0.000258662
0.000266382
0.000273987
0.00028146
0.000288788
0.000295963
0.000302984
0.000309866
0.000316629
0.000323284
0.000329843
0.000336315
0.00034271
0.00034904
0.000355315
0.000361546
0.000367744
0.00037392
0.000380084
0.000386249
0.000392424
0.00039862
0.000404847
0.000411114
0.00041743
0.000423804
0.000430244
0.000436756
0.000443348
0.000450025
0.000456792
0.000463654
0.000470616
0.000477681
0.000484852
0.000492131
0.00049952
0.000507021
0.000514636
0.000522364
0.000530208
0.000538166
0.00054624
0.000554429
0.000562734
0.000571154
0.000579689
0.000588339
0.000597104
0.000605985
0.000614981
0.000624093
0.000633321
0.000642664
0.000652125
0.000661701
0.000671394
0.000681203
0.000691127
0.000701164
0.000711313
0.00072157
0.00073193
0.000742388
0.000752936
0.000763564
0.00077426
0.000785008
0.000795789
0.000806576
0.000817339
0.000828034
0.000838606
0.000848976
0.000858842
0.000868635
0.000878405
0.000888151
0.000897866
0.000907538
0.000917154
0.000926699
0.000936157
0.000945508
0.000954732
0.000963808
0.000972709
0.00098141
0.000989881
0.000998093
0.00100601
0.00101361
0.00102085
0.0010277
0.00103412
0.00104007
0.00104553
0.00105045
0.00105482
0.00105859
0.00106174
0.00106426
0.00106611
0.00106729
0.00106779
0.00106759
0.00106671
0.00106515
0.00106292
0.00106003
0.0010565
0.00105237
0.00104767
0.00104241
0.00103664
0.00103041
0.00102374
0.00101667
0.00100926
0.00100153
0.000993537
0.00098531
0.000976895
0.000968314
0.000959622
0.000950852
0.000942013
0.00093316
0.000924304
0.000915474
0.00090674
0.000897872
0.000888569
0.000879311
0.000870267
0.000861476
0.000852965
0.000844723
0.00083671
0.000828442
0.000820558
0.000813057
0.000805911
0.000799078
0.000792545
0.000786293
0.000780323
0.000774553
0.000769151
0.000763382
0.000757373
0.000751325
0.000745225
0.000739009
0.000732673
0.000726341
0.000719892
0.000712112
0.000696423
9.92519e-06
7.56813e-05
0.000145682
0.000196155
0.000230969
0.000255467
0.000273897
0.000289215
0.000303242
0.000316968
0.000330867
0.000345119
0.000359759
0.000374749
0.000390024
0.000405509
0.000421131
0.000436822
0.000452518
0.000468165
0.000483713
0.000499121
0.000514354
0.000529385
0.000544192
0.000558764
0.000573096
0.000587189
0.000601056
0.000614709
0.000628162
0.000641431
0.000654533
0.000667485
0.000680308
0.00069302
0.000705643
0.000718199
0.000730709
0.000743196
0.00075568
0.000768184
0.00078073
0.000793337
0.000806025
0.000818814
0.000831721
0.000844762
0.000857954
0.000871309
0.000884841
0.000898561
0.00091248
0.000926607
0.000940948
0.000955512
0.000970301
0.000985322
0.00100058
0.00101607
0.0010318
0.00104776
0.00106397
0.00108041
0.00109708
0.00111399
0.00113113
0.0011485
0.0011661
0.00118392
0.00120196
0.00122022
0.0012387
0.00125738
0.00127628
0.00129538
0.00131468
0.00133417
0.00135386
0.00137374
0.00139379
0.00141401
0.0014344
0.00145493
0.00147559
0.00149637
0.00151725
0.0015382
0.00155919
0.00158019
0.00160117
0.00162208
0.00164289
0.00166356
0.00168367
0.00170352
0.00172327
0.00174297
0.00176261
0.00178217
0.00180165
0.00182102
0.00184024
0.0018593
0.00187815
0.00189675
0.00191507
0.00193305
0.00195064
0.0019678
0.00198445
0.00200053
0.00201599
0.00203075
0.00204474
0.00205788
0.00207011
0.00208135
0.00209154
0.0021006
0.00210847
0.0021151
0.00212043
0.00212443
0.00212705
0.00212827
0.00212809
0.00212649
0.00212348
0.00211909
0.00211335
0.0021063
0.00209798
0.00208846
0.00207781
0.00206608
0.00205338
0.00203977
0.00202534
0.00201017
0.00199436
0.00197797
0.00196109
0.00194382
0.00192621
0.00190835
0.0018903
0.00187214
0.00185392
0.00183565
0.00181739
0.00179919
0.00178097
0.00176262
0.00174435
0.00172631
0.00170855
0.00169111
0.00167397
0.00165707
0.00164008
0.00162354
0.00160755
0.00159207
0.00157705
0.00156249
0.00154838
0.00153473
0.00152137
0.00150803
0.00149461
0.00148116
0.00146777
0.00145437
0.00144087
0.00142715
0.00141313
0.00139843
0.00138143
0.00135456
1.12676e-05
9.58752e-05
0.000187839
0.00025895
0.000311798
0.000351534
0.000382635
0.000408492
0.000431462
0.000453056
0.00047416
0.000495247
0.00051653
0.000538075
0.000559868
0.000581856
0.000603968
0.000626133
0.000648277
0.000670338
0.000692257
0.000713988
0.000735489
0.000756731
0.000777691
0.000798356
0.00081872
0.000838783
0.000858553
0.00087804
0.000897258
0.000916226
0.000934964
0.000953494
0.000971842
0.000990032
0.00100809
0.00102606
0.00104395
0.0010618
0.00107964
0.00109751
0.00111542
0.00113341
0.0011515
0.00116973
0.00118812
0.00120669
0.00122546
0.00124445
0.00126369
0.00128318
0.00130295
0.001323
0.00134335
0.001364
0.00138497
0.00140625
0.00142786
0.00144979
0.00147204
0.00149462
0.00151752
0.00154073
0.00156426
0.00158811
0.00161225
0.00163669
0.00166143
0.00168645
0.00171174
0.0017373
0.00176312
0.00178919
0.00181551
0.00184206
0.00186883
0.00189581
0.001923
0.00195038
0.00197794
0.00200566
0.00203354
0.00206154
0.00208966
0.00211786
0.00214613
0.00217444
0.00220276
0.00223105
0.00225927
0.0022874
0.00231539
0.0023432
0.00237055
0.0023977
0.00242474
0.00245169
0.00247856
0.00250534
0.00253198
0.00255849
0.00258481
0.00261091
0.00263675
0.00266229
0.00268747
0.00271223
0.0027365
0.00276021
0.00278329
0.00280565
0.0028272
0.00284785
0.00286751
0.00288607
0.00290343
0.0029195
0.00293416
0.00294733
0.00295891
0.00296882
0.00297697
0.00298329
0.00298775
0.00299028
0.00299086
0.00298949
0.00298615
0.00298088
0.0029737
0.00296467
0.00295384
0.00294129
0.00292712
0.0029114
0.00289425
0.00287578
0.0028561
0.00283532
0.00281357
0.00279094
0.00276757
0.00274356
0.00271903
0.00269407
0.00266876
0.0026432
0.00261747
0.00259161
0.0025657
0.00253981
0.00251394
0.00248808
0.00246233
0.00243677
0.00241144
0.00238639
0.0023616
0.00233705
0.00231264
0.00228856
0.00226506
0.0022421
0.00221966
0.00219772
0.00217627
0.00215511
0.00213415
0.00211335
0.00209262
0.00207201
0.00205154
0.00203113
0.00201067
0.00199001
0.00196893
0.00194689
0.00192232
0.00188948
1.26184e-05
0.000108919
0.000220194
0.000310302
0.000380086
0.000434461
0.00047802
0.000514418
0.000546353
0.000575702
0.000603688
0.00063106
0.000658237
0.000685429
0.000712714
0.000740096
0.000767538
0.000794984
0.000822372
0.00084964
0.000876731
0.000903597
0.000930197
0.000956497
0.000982474
0.00100811
0.0010334
0.00105834
0.00108294
0.0011072
0.00113114
0.00115478
0.00117813
0.00120123
0.0012241
0.00124678
0.00126928
0.00129166
0.00131393
0.00133614
0.00135833
0.00138052
0.00140276
0.00142508
0.00144751
0.00147009
0.00149284
0.00151579
0.00153898
0.00156242
0.00158615
0.00161017
0.00163451
0.00165918
0.0016842
0.00170957
0.00173531
0.00176143
0.00178791
0.00181477
0.00184201
0.00186962
0.0018976
0.00192595
0.00195465
0.0019837
0.00201308
0.00204279
0.00207282
0.00210315
0.00213378
0.00216467
0.00219583
0.00222724
0.00225888
0.00229074
0.0023228
0.00235504
0.00238746
0.00242004
0.00245275
0.00248559
0.00251852
0.00255154
0.00258462
0.00261774
0.00265088
0.002684
0.00271709
0.0027501
0.00278302
0.00281582
0.00284846
0.00288082
0.00291285
0.00294471
0.00297646
0.00300812
0.00303969
0.00307116
0.0031025
0.0031337
0.00316473
0.00319554
0.00322611
0.00325637
0.00328628
0.00331578
0.00334478
0.00337323
0.00340101
0.00342806
0.00345426
0.0034795
0.00350368
0.00352667
0.00354835
0.00356859
0.00358727
0.00360427
0.00361945
0.00363272
0.00364396
0.00365308
0.00366
0.00366466
0.00366699
0.00366698
0.0036646
0.00365988
0.00365283
0.0036435
0.00363195
0.00361827
0.00360254
0.00358488
0.00356539
0.00354422
0.00352148
0.0034973
0.00347184
0.00344524
0.00341762
0.00338911
0.00335984
0.00332994
0.00329949
0.00326862
0.00323742
0.00320596
0.00317434
0.00314262
0.00311086
0.0030791
0.0030474
0.00301582
0.00298439
0.00295316
0.00292214
0.00289134
0.00286075
0.00283047
0.00280063
0.00277128
0.0027424
0.00271393
0.00268578
0.0026579
0.00263023
0.00260275
0.00257541
0.00254824
0.00252123
0.00249433
0.00246745
0.00244042
0.002413
0.00238464
0.00235401
0.0023174
1.37743e-05
0.000117984
0.000245137
0.000352083
0.000437427
0.00050557
0.000561067
0.000607704
0.000648396
0.000685276
0.000719832
0.00075305
0.00078555
0.000817695
0.00084968
0.000881587
0.000913435
0.000945203
0.000976851
0.00100833
0.0010396
0.0010706
0.00110131
0.00113168
0.0011617
0.00119134
0.0012206
0.00124947
0.00127796
0.00130606
0.00133381
0.0013612
0.00138827
0.00141505
0.00144155
0.00146781
0.00149387
0.00151977
0.00154553
0.00157121
0.00159683
0.00162244
0.00164808
0.00167378
0.00169959
0.00172554
0.00175167
0.001778
0.00180458
0.00183142
0.00185856
0.00188601
0.0019138
0.00194194
0.00197046
0.00199936
0.00202864
0.00205833
0.00208841
0.0021189
0.00214979
0.00218107
0.00221274
0.0022448
0.00227722
0.00231
0.00234312
0.00237657
0.00241034
0.00244439
0.00247873
0.00251331
0.00254814
0.00258318
0.00261841
0.00265382
0.00268939
0.00272509
0.0027609
0.00279681
0.00283279
0.00286883
0.00290491
0.002941
0.00297709
0.00301315
0.00304917
0.00308512
0.00312098
0.00315672
0.00319233
0.00322778
0.00326307
0.003298
0.00333269
0.00336725
0.00340172
0.00343611
0.00347042
0.00350467
0.00353882
0.00357288
0.00360682
0.00364061
0.00367422
0.0037076
0.00374071
0.00377349
0.00380588
0.00383779
0.00386913
0.00389982
0.00392974
0.00395878
0.00398682
0.00401372
0.00403933
0.00406352
0.00408613
0.00410701
0.00412602
0.00414301
0.00415785
0.00417041
0.00418057
0.00418826
0.00419337
0.00419586
0.00419571
0.00419288
0.00418739
0.00417928
0.00416861
0.00415544
0.00413986
0.00412199
0.00410195
0.00407987
0.00405591
0.00403019
0.00400289
0.00397415
0.00394412
0.00391293
0.00388074
0.00384767
0.00381384
0.00377938
0.0037444
0.00370898
0.00367323
0.00363724
0.00360106
0.00356478
0.00352844
0.0034921
0.00345581
0.00341961
0.00338352
0.00334758
0.00331182
0.00327631
0.00324111
0.00320625
0.00317171
0.00313746
0.00310345
0.00306965
0.00303602
0.00300255
0.00296924
0.00293609
0.00290309
0.00287023
0.00283741
0.00280453
0.00277133
0.00273735
0.00270156
0.00266167
1.47321e-05
0.000124394
0.000264242
0.000385647
0.000484901
0.000565682
0.00063235
0.000688704
0.000737779
0.000781876
0.000822679
0.000861365
0.000898731
0.000935291
0.000971355
0.0010071
0.00104261
0.00107792
0.00111301
0.00114787
0.00118246
0.00121675
0.0012507
0.00128429
0.00131748
0.00135028
0.00138265
0.0014146
0.00144613
0.00147725
0.00150797
0.0015383
0.00156827
0.0015979
0.00162723
0.00165628
0.00168509
0.00171369
0.00174214
0.00177046
0.0017987
0.0018269
0.00185511
0.00188336
0.0019117
0.00194016
0.00196878
0.0019976
0.00202666
0.00205598
0.00208559
0.00211551
0.00214578
0.00217641
0.00220741
0.0022388
0.00227058
0.00230278
0.00233537
0.00236838
0.00240179
0.0024356
0.00246981
0.00250439
0.00253933
0.00257463
0.00261026
0.0026462
0.00268243
0.00271893
0.00275568
0.00279264
0.0028298
0.00286713
0.00290461
0.0029422
0.00297989
0.00301764
0.00305544
0.00309327
0.00313109
0.0031689
0.00320666
0.00324437
0.003282
0.00331953
0.00335695
0.00339424
0.00343139
0.00346838
0.00350519
0.0035418
0.0035782
0.00361429
0.00365019
0.00368598
0.00372172
0.00375741
0.00379308
0.00382874
0.00386438
0.0039
0.00393559
0.00397115
0.00400665
0.00404206
0.00407734
0.00411245
0.00414733
0.0041819
0.0042161
0.00424981
0.00428295
0.00431539
0.00434699
0.00437762
0.00440711
0.0044353
0.00446203
0.00448711
0.00451037
0.00453162
0.00455071
0.00456746
0.00458174
0.00459341
0.00460234
0.00460846
0.00461172
0.00461204
0.00460942
0.00460389
0.00459548
0.00458424
0.00457026
0.00455366
0.00453455
0.00451309
0.0044894
0.00446366
0.00443601
0.00440662
0.00437564
0.00434323
0.00430953
0.00427469
0.00423885
0.00420214
0.00416467
0.00412657
0.00408792
0.00404884
0.00400939
0.00396967
0.00392973
0.00388963
0.00384944
0.00380919
0.00376893
0.0037287
0.00368853
0.00364849
0.00360861
0.00356891
0.00352939
0.00349002
0.00345078
0.00341166
0.00337266
0.00333376
0.00329498
0.00325632
0.00321779
0.00317938
0.00314105
0.00310271
0.00306415
0.00302499
0.00298445
0.00294114
1.55182e-05
0.000128801
0.000278528
0.000412023
0.000523399
0.000615502
0.000692378
0.000757745
0.000814671
0.000865558
0.000912221
0.000955989
0.000997802
0.0010383
0.00107792
0.00111692
0.00115547
0.00119364
0.00123148
0.00126898
0.00130614
0.00134295
0.00137937
0.00141538
0.00145097
0.00148612
0.00152082
0.00155507
0.00158887
0.00162221
0.00165513
0.00168762
0.00171972
0.00175145
0.00178283
0.0018139
0.0018447
0.00187526
0.00190562
0.00193583
0.00196593
0.00199596
0.00202596
0.00205598
0.00208606
0.00211625
0.00214657
0.00217708
0.0022078
0.00223877
0.00227002
0.00230158
0.00233347
0.00236571
0.00239832
0.00243132
0.00246471
0.00249849
0.00253269
0.00256728
0.00260228
0.00263767
0.00267344
0.00270958
0.00274608
0.00278291
0.00282005
0.00285749
0.00289519
0.00293313
0.00297128
0.00300961
0.0030481
0.0030867
0.00312539
0.00316415
0.00320293
0.00324171
0.00328047
0.00331918
0.00335781
0.00339634
0.00343476
0.00347304
0.00351116
0.00354912
0.00358691
0.0036245
0.00366189
0.00369907
0.00373603
0.00377276
0.00380924
0.00384546
0.00388155
0.00391758
0.0039536
0.00398962
0.00402569
0.00406182
0.00409803
0.00413433
0.00417073
0.00420723
0.00424384
0.00428054
0.00431731
0.00435411
0.00439092
0.00442766
0.00446427
0.00450067
0.00453675
0.0045724
0.00460749
0.00464187
0.00467535
0.00470777
0.00473892
0.00476862
0.00479666
0.0048228
0.00484683
0.00486858
0.00488786
0.00490447
0.00491823
0.00492905
0.00493685
0.00494149
0.00494293
0.00494118
0.00493626
0.00492821
0.00491711
0.00490306
0.00488618
0.0048666
0.00484446
0.00481993
0.00479316
0.00476432
0.00473357
0.00470108
0.00466701
0.00463151
0.00459472
0.0045568
0.00451786
0.00447804
0.00443744
0.00439617
0.00435432
0.00431199
0.00426924
0.00422615
0.00418278
0.00413918
0.0040954
0.0040515
0.00400751
0.00396348
0.00391944
0.00387541
0.00383141
0.00378741
0.00374343
0.00369947
0.00365552
0.0036116
0.00356773
0.00352394
0.00348023
0.00343662
0.0033931
0.00334959
0.00330596
0.0032619
0.00321679
0.00316977
1.61566e-05
0.000131602
0.000288726
0.00043203
0.00055369
0.00065568
0.000741655
0.000815175
0.000879275
0.0009364
0.000988448
0.00103685
0.00108267
0.00112665
0.00116932
0.00121104
0.00125204
0.00129246
0.00133239
0.00137186
0.0014109
0.00144949
0.00148765
0.00152535
0.00156258
0.00159933
0.0016356
0.00167138
0.00170667
0.00174149
0.00177584
0.00180974
0.00184321
0.00187628
0.00190897
0.00194132
0.00197336
0.00200514
0.00203668
0.00206804
0.00209926
0.00213037
0.00216144
0.00219249
0.00222358
0.00225475
0.00228603
0.00231748
0.00234912
0.002381
0.00241314
0.00244557
0.00247832
0.00251141
0.00254486
0.00257869
0.0026129
0.00264751
0.00268251
0.00271792
0.00275371
0.0027899
0.00282646
0.00286338
0.00290065
0.00293824
0.00297613
0.00301429
0.0030527
0.00309132
0.00313013
0.00316908
0.00320815
0.0032473
0.00328649
0.00332569
0.00336486
0.00340397
0.00344299
0.00348189
0.00352064
0.00355922
0.00359761
0.00363578
0.00367373
0.00371144
0.0037489
0.00378611
0.00382306
0.00385975
0.00389618
0.00393234
0.00396823
0.00400394
0.00403958
0.0040752
0.00411085
0.00414658
0.00418242
0.00421841
0.00425458
0.00429096
0.00432759
0.00436448
0.00440166
0.00443913
0.0044769
0.00451497
0.0045533
0.00459185
0.00463058
0.00466942
0.00470828
0.00474705
0.00478562
0.00482381
0.00486144
0.00489832
0.00493424
0.00496898
0.00500233
0.00503395
0.00506363
0.00509113
0.00511626
0.00513871
0.00515826
0.00517476
0.00518808
0.00519808
0.00520469
0.00520786
0.00520759
0.00520389
0.00519682
0.00518646
0.00517293
0.00515634
0.00513683
0.00511457
0.00508972
0.00506244
0.0050329
0.00500129
0.00496776
0.00493248
0.00489561
0.0048573
0.00481769
0.00477692
0.0047351
0.00469235
0.00464878
0.00460448
0.00455955
0.00451405
0.00446806
0.00442165
0.00437486
0.00432776
0.00428039
0.00423279
0.004185
0.00413706
0.00408896
0.00404073
0.00399238
0.00394391
0.00389537
0.00384676
0.00379811
0.00374948
0.00370087
0.00365234
0.00360388
0.00355546
0.00350697
0.00345818
0.00340859
0.00335762
1.66661e-05
0.000133078
0.000295403
0.00044635
0.000576446
0.000686811
0.000780663
0.000861346
0.000931812
0.000994498
0.00105134
0.00110385
0.00115315
0.0012001
0.0012453
0.00128919
0.00133206
0.00137413
0.0014155
0.00145628
0.0014965
0.00153618
0.00157534
0.00161398
0.0016521
0.0016897
0.00172676
0.00176331
0.00179933
0.00183485
0.00186986
0.0019044
0.00193848
0.00197213
0.00200537
0.00203824
0.00207078
0.00210301
0.002135
0.00216677
0.00219837
0.00222985
0.00226125
0.00229261
0.00232399
0.00235543
0.00238697
0.00241865
0.00245051
0.00248258
0.00251491
0.00254753
0.00258045
0.00261371
0.00264732
0.00268131
0.00271568
0.00275044
0.0027856
0.00282117
0.00285713
0.00289348
0.00293021
0.0029673
0.00300474
0.00304251
0.00308057
0.0031189
0.00315747
0.00319625
0.0032352
0.00327428
0.00331345
0.00335267
0.00339191
0.00343111
0.00347025
0.00350928
0.00354816
0.00358686
0.00362535
0.00366361
0.00370159
0.0037393
0.0037767
0.0038138
0.00385057
0.00388702
0.00392316
0.00395897
0.00399448
0.00402968
0.00406466
0.00409953
0.00413436
0.00416921
0.00420414
0.00423919
0.00427443
0.00430989
0.00434563
0.00438171
0.00441816
0.00445505
0.0044924
0.00453026
0.00456867
0.00460763
0.00464716
0.00468722
0.0047278
0.00476885
0.00481031
0.00485208
0.00489407
0.00493611
0.00497798
0.0050195
0.00506043
0.00510056
0.00513967
0.00517731
0.00521322
0.00524712
0.00527875
0.00530778
0.00533397
0.00535707
0.0053769
0.00539328
0.00540609
0.00541522
0.00542065
0.00542236
0.00542036
0.00541473
0.00540556
0.00539295
0.00537704
0.00535799
0.00533596
0.00531112
0.00528365
0.00525373
0.00522153
0.00518723
0.005151
0.005113
0.00507338
0.00503228
0.00498985
0.00494621
0.00490147
0.00485575
0.00480913
0.0047617
0.00471355
0.00466475
0.00461536
0.00456545
0.00451507
0.00446426
0.00441307
0.00436154
0.00430969
0.00425754
0.00420513
0.00415248
0.00409962
0.0040466
0.00399346
0.00394024
0.00388699
0.00383377
0.0037806
0.00372748
0.00367433
0.00362097
0.00356698
0.00351193
1.70605e-05
0.000133442
0.000299019
0.000455563
0.000592261
0.000709434
0.000809843
0.000896581
0.000972472
0.00103991
0.00110083
0.00115679
0.00120897
0.00125829
0.00130542
0.00135086
0.00139499
0.00143804
0.00148019
0.00152157
0.00156225
0.00160228
0.00164169
0.0016805
0.00171873
0.00175637
0.00179344
0.00182995
0.00186589
0.0019013
0.00193617
0.00197054
0.00200442
0.00203785
0.00207085
0.00210345
0.0021357
0.00216763
0.00219928
0.0022307
0.00226194
0.00229303
0.00232404
0.00235499
0.00238595
0.00241695
0.00244805
0.00247928
0.00251069
0.00254231
0.00257418
0.00260634
0.00263882
0.00267163
0.00270481
0.00273838
0.00277234
0.00280671
0.0028415
0.00287671
0.00291233
0.00294837
0.00298481
0.00302163
0.00305883
0.00309637
0.00313422
0.00317237
0.00321077
0.0032494
0.0032882
0.00332713
0.00336617
0.00340525
0.00344433
0.00348336
0.0035223
0.0035611
0.00359972
0.00363811
0.00367623
0.00371406
0.00375156
0.00378871
0.00382548
0.00386186
0.00389786
0.00393345
0.00396865
0.00400347
0.0040379
0.00407207
0.00410609
0.00414002
0.00417393
0.00420789
0.00424195
0.00427617
0.00431061
0.00434535
0.00438044
0.00441595
0.00445197
0.00448855
0.00452578
0.00456371
0.00460242
0.00464196
0.00468236
0.00472361
0.00476574
0.00480872
0.00485251
0.00489707
0.00494232
0.00498814
0.00503423
0.00508041
0.00512647
0.00517214
0.00521714
0.00526108
0.00530363
0.00534446
0.00538321
0.00541954
0.00545311
0.00548364
0.00551086
0.00553454
0.00555448
0.00557055
0.00558266
0.00559073
0.00559478
0.00559483
0.00559095
0.00558324
0.00557181
0.00555683
0.00553845
0.00551685
0.0054922
0.00546471
0.00543454
0.0054019
0.00536695
0.00532988
0.00529084
0.00524999
0.00520749
0.00516346
0.00511804
0.00507135
0.00502349
0.00497456
0.00492465
0.00487385
0.00482223
0.00476986
0.0047168
0.00466311
0.00460884
0.00455403
0.00449872
0.00444296
0.00438678
0.00433023
0.00427334
0.00421618
0.0041588
0.00410125
0.00404361
0.00398594
0.00392829
0.00387068
0.00381307
0.00375532
0.00369704
0.0036379
1.73517e-05
0.000132865
0.00029996
0.00046017
0.000601652
0.000724015
0.000829565
0.000921122
0.00100135
0.00107258
0.00113671
0.00119532
0.00124962
0.00130058
0.00134892
0.00139521
0.00143985
0.00148314
0.00152531
0.00156652
0.00160687
0.00164643
0.00168527
0.00172341
0.00176089
0.00179772
0.00183392
0.00186952
0.00190451
0.00193893
0.00197279
0.00200612
0.00203894
0.00207129
0.00210319
0.00213469
0.00216581
0.00219661
0.00222713
0.00225741
0.0022875
0.00231745
0.00234731
0.00237713
0.00240695
0.00243683
0.00246681
0.00249694
0.00252726
0.00255781
0.00258864
0.00261978
0.00265126
0.00268311
0.00271536
0.00274803
0.00278113
0.00281469
0.00284871
0.00288319