/*--------------------------------*- C++ -*----------------------------------*\
| =========                 |                                                 |
| \\      /  F ield         | OpenFOAM: The Open Source CFD Toolbox           |
|  \\    /   O peration     | Version:  2.2.x                                 |
|   \\  /    A nd           | Web:      www.OpenFOAM.org                      |
|    \\/     M anipulation  |                                                 |
\*---------------------------------------------------------------------------*/
FoamFile
{
    version     2.0;
    format      ascii;
    class       volScalarField;
    location    "500";
    object      p;
}
// * * * * * * * * * * * * * * * * * * * * * * * * * * * * * * * * * * * * * //

dimensions      [0 2 -2 0 0 0 0];

internalField   nonuniform List<scalar> 
12225
(
-2.55742
-5.26226
-6.11026
-6.35
-6.51432
-6.65587
-6.77015
-6.86518
-6.94943
-7.02717
-7.10037
-7.17031
-7.238
-7.30418
-7.36927
-7.43252
-7.4908
-7.45992
-6.3459
-6.70081
-6.81193
-6.76674
-6.77393
-6.82314
-6.88194
-6.9421
-7.00349
-7.06579
-7.12831
-7.19069
-7.25292
-7.31512
-7.37743
-7.44005
-7.5078
-7.62553
-6.193
-6.03803
-6.24009
-6.37496
-6.49858
-6.62455
-6.73754
-6.83608
-6.92465
-7.0064
-7.08301
-7.1557
-7.22556
-7.29351
-7.36047
-7.42796
-7.50127
-7.59941
-6.10851
-6.09748
-6.37029
-6.5388
-6.65087
-6.75227
-6.84211
-6.92092
-6.993
-7.06122
-7.12686
-7.19069
-7.25337
-7.31554
-7.37798
-7.4422
-7.51209
-7.59666
-6.14482
-6.19392
-6.40646
-6.54328
-6.63626
-6.72581
-6.81105
-6.88958
-6.96329
-7.03388
-7.10207
-7.16836
-7.23325
-7.29731
-7.3613
-7.42648
-7.4951
-7.56966
-6.21883
-6.26934
-6.43
-6.55381
-6.64694
-6.73624
-6.82153
-6.90039
-6.97409
-7.04419
-7.11154
-7.17674
-7.24034
-7.30292
-7.36515
-7.42789
-7.49219
-7.55791
-6.28421
-6.32629
-6.45347
-6.56756
-6.65902
-6.74502
-6.82704
-6.90354
-6.9754
-7.04394
-7.10992
-7.17386
-7.23623
-7.29748
-7.35806
-7.41837
-7.47863
-7.53746
-6.33546
-6.37225
-6.47889
-6.58316
-6.67093
-6.75342
-6.8325
-6.90705
-6.97755
-7.04499
-7.10997
-7.17294
-7.23424
-7.29422
-7.35315
-7.41116
-7.46813
-7.52237
-6.37891
-6.41199
-6.50288
-6.5979
-6.68166
-6.76089
-6.83728
-6.90994
-6.97907
-7.04533
-7.10923
-7.17111
-7.23126
-7.2899
-7.34717
-7.40303
-7.45717
-7.50796
-6.42407
-6.45342
-6.52976
-6.61505
-6.69404
-6.76957
-6.8429
-6.91329
-6.98068
-7.04546
-7.108
-7.16854
-7.22727
-7.2843
-7.33967
-7.3932
-7.44451
-7.49219
-6.47016
-6.49567
-6.55926
-6.63474
-6.7082
-6.77954
-6.84939
-6.91709
-6.98236
-7.04532
-7.10619
-7.16508
-7.2221
-7.27725
-7.33048
-7.38155
-7.43009
-7.47496
-6.51618
-6.53796
-6.59074
-6.65672
-6.72404
-6.79076
-6.85676
-6.92137
-6.98413
-7.04492
-7.10378
-7.16073
-7.21575
-7.26877
-7.31969
-7.36825
-7.41414
-7.45651
-6.56098
-6.57934
-6.62315
-6.6803
-6.74119
-6.80295
-6.86481
-6.92599
-6.98587
-7.04415
-7.1007
-7.1554
-7.20817
-7.25888
-7.30738
-7.35346
-7.39686
-7.43698
-6.60313
-6.61854
-6.65505
-6.70434
-6.75888
-6.81554
-6.87309
-6.93059
-6.98732
-7.04281
-7.09677
-7.14901
-7.19935
-7.24763
-7.2937
-7.33737
-7.37848
-7.41658
-6.64084
-6.65381
-6.68455
-6.72718
-6.77583
-6.82752
-6.88078
-6.93454
-6.98798
-7.04051
-7.09173
-7.14137
-7.18921
-7.23505
-7.27876
-7.32017
-7.35918
-7.39548
-6.6717
-6.68281
-6.70919
-6.7465
-6.79011
-6.83734
-6.88662
-6.93683
-6.98706
-7.03666
-7.08517
-7.13225
-7.17764
-7.22116
-7.26265
-7.302
-7.33914
-7.37384
-6.69247
-6.70227
-6.72564
-6.75916
-6.79897
-6.84267
-6.8887
-6.9359
-6.98335
-7.03037
-7.07644
-7.12122
-7.16443
-7.20589
-7.24546
-7.28305
-7.31861
-7.35198
-6.69806
-6.70723
-6.7292
-6.7609
-6.79881
-6.84061
-6.88478
-6.93016
-6.97583
-7.02112
-7.06552
-7.10866
-7.1503
-7.19025
-7.22839
-7.26467
-7.29902
-7.33132
-6.68816
-6.69735
-6.71947
-6.7514
-6.78948
-6.83126
-6.87522
-6.92022
-6.9654
-7.01008
-7.0538
-7.09621
-7.13708
-7.17626
-7.21365
-7.24922
-7.28293
-7.31466
-6.66715
-6.67676
-6.70021
-6.73409
-6.77402
-6.81725
-6.86225
-6.90798
-6.95362
-6.99854
-7.0423
-7.08461
-7.12527
-7.16417
-7.20123
-7.23642
-7.26975
-7.30109
-6.63823
-6.6484
-6.67423
-6.71166
-6.75488
-6.80063
-6.84759
-6.89486
-6.94167
-6.98743
-7.03179
-7.07451
-7.11545
-7.1545
-7.19163
-7.22685
-7.26016
-7.2915
-6.60376
-6.61408
-6.64337
-6.68616
-6.73381
-6.78273
-6.83216
-6.88143
-6.92974
-6.97659
-7.02174
-7.06502
-7.10632
-7.1456
-7.18283
-7.21803
-7.25123
-7.2823
-6.56577
-6.57481
-6.60907
-6.65954
-6.71266
-6.7652
-6.81758
-6.86927
-6.91947
-6.96779
-7.01411
-7.05832
-7.10037
-7.14023
-7.17791
-7.21344
-7.24689
-7.27822
-6.52617
-6.53083
-6.57213
-6.63234
-6.69098
-6.74704
-6.80235
-6.8562
-6.90783
-6.95713
-7.00417
-7.04893
-7.0914
-7.13158
-7.16949
-7.20513
-7.23849
-7.26934
-6.4862
-6.48242
-6.53769
-6.60994
-6.67303
-6.73295
-6.79251
-6.84984
-6.90405
-6.95532
-7.00387
-7.04978
-7.0931
-7.13391
-7.17226
-7.20818
-7.24173
-7.27287
-6.44322
-6.41388
-6.49914
-6.58699
-6.64916
-6.70736
-6.76653
-6.82375
-6.87813
-6.93001
-6.97952
-7.02661
-7.07125
-7.11345
-7.1532
-7.19046
-7.22504
-7.25625
-6.43717
-6.32226
-6.4616
-6.59172
-6.67418
-6.74444
-6.80935
-6.86763
-6.92061
-6.96997
-7.01646
-7.06038
-7.10191
-7.1412
-7.17835
-7.21337
-7.24613
-7.27632
-6.53452
-6.20323
-6.27859
-6.38026
-6.47098
-6.56606
-6.65644
-6.73727
-6.80993
-6.87626
-6.93718
-6.99328
-7.04508
-7.09308
-7.13767
-7.17915
-7.21752
-7.25207
-6.83329
-6.89825
-6.93051
-6.85659
-6.82239
-6.83376
-6.86214
-6.89619
-6.93378
-6.97368
-7.01447
-7.05507
-7.09487
-7.13352
-7.17089
-7.20701
-7.24197
-7.27694
-3.13896
-5.33266
-6.13018
-6.34955
-6.48331
-6.60179
-6.69868
-6.77804
-6.84685
-6.90886
-6.96557
-7.01783
-7.06628
-7.11145
-7.15382
-7.19396
-7.23257
-7.27448
-8.17644
-8.17691
-8.17839
-8.18031
-8.18228
-8.18436
-8.18688
-8.1902
-8.19435
-8.19929
-8.20506
-8.21168
-8.21916
-8.22748
-8.23664
-8.24661
-8.25735
-8.26883
-8.28099
-8.29381
-8.30722
-8.3212
-8.33569
-8.35066
-8.36608
-8.38192
-8.39818
-8.4148
-8.43172
-8.4489
-8.46635
-8.48405
-8.502
-8.52018
-8.5386
-8.55726
-8.57613
-8.59522
-8.61451
-8.63401
-8.6537
-8.67357
-8.69361
-8.7138
-8.73412
-8.75456
-8.77508
-8.79566
-8.81626
-8.83684
-8.85737
-8.87778
-8.89803
-8.91805
-8.93778
-8.95714
-8.97605
-8.99444
-9.01219
-9.02921
-9.04538
-9.06059
-9.07471
-9.0876
-9.09912
-9.1091
-9.11738
-9.12379
-9.12812
-9.13019
-9.12978
-9.12666
-9.12058
-9.11131
-9.09856
-9.08206
-9.06151
-9.0366
-9.00701
-8.9724
-8.93242
-8.88672
-8.83491
-8.77663
-8.71147
-8.63906
-8.559
-8.47089
-8.37435
-8.26898
-8.1544
-8.03029
-7.8963
-7.75203
-7.59704
-7.43099
-7.25368
-7.06494
-6.86464
-6.65267
-6.42901
-6.19366
-5.94669
-5.68823
-5.41849
-5.13773
-4.84633
-4.54471
-4.2334
-3.913
-3.58421
-3.24781
-2.90466
-2.55569
-2.20191
-1.84441
-1.48431
-1.12279
-0.761053
-0.400339
-0.0418779
0.313101
0.663395
1.00784
1.34533
1.67483
1.99538
2.3061
2.60624
2.89514
3.17225
3.43714
3.68951
3.92917
4.15602
4.3701
4.57152
4.76049
4.93732
5.10238
5.25609
5.39895
5.53147
5.65425
5.76785
5.87289
5.97002
6.05983
6.14299
6.22012
6.29183
6.35875
6.42154
6.48081
6.53715
6.59114
6.64339
6.69453
6.74516
6.79587
6.84725
6.89986
6.95425
7.01094
7.07041
7.13315
7.19957
7.27009
7.34513
7.42503
7.5101
7.60061
7.69677
7.79873
7.90662
8.0204
8.14066
8.26634
8.40328
8.53791
-8.17204
-8.17338
-8.17513
-8.1766
-8.17744
-8.17795
-8.17874
-8.18038
-8.18305
-8.18676
-8.19147
-8.19717
-8.20384
-8.21144
-8.21994
-8.22931
-8.2395
-8.25046
-8.26215
-8.27452
-8.28751
-8.30109
-8.3152
-8.32981
-8.34488
-8.36037
-8.37625
-8.39249
-8.40905
-8.4259
-8.44302
-8.4604
-8.47803
-8.49591
-8.51401
-8.53235
-8.5509
-8.56967
-8.58865
-8.60782
-8.62719
-8.64674
-8.66645
-8.68632
-8.70633
-8.72645
-8.74666
-8.76694
-8.78724
-8.80754
-8.82779
-8.84794
-8.86793
-8.88772
-8.90723
-8.92639
-8.94512
-8.96334
-8.98096
-8.99787
-9.01397
-9.02914
-9.04325
-9.05617
-9.06775
-9.07785
-9.0863
-9.09292
-9.09753
-9.09994
-9.09992
-9.09727
-9.09174
-9.08309
-9.07105
-9.05535
-9.03569
-9.01177
-8.98328
-8.94987
-8.91121
-8.86695
-8.81671
-8.76011
-8.69678
-8.62632
-8.54835
-8.46247
-8.3683
-8.26543
-8.15352
-8.03224
-7.90126
-7.76009
-7.60822
-7.44539
-7.27142
-7.08612
-6.88935
-6.68102
-6.46108
-6.22951
-5.98637
-5.73179
-5.46595
-5.1891
-4.90158
-4.60381
-4.29627
-3.97957
-3.65435
-3.32138
-2.98148
-2.63555
-2.28459
-1.92964
-1.5718
-1.21222
-0.852095
-0.492629
-0.135043
0.219449
0.56965
0.9144
1.25259
1.58319
1.9052
2.21776
2.52006
2.81145
3.09134
3.35927
3.6149
3.85801
4.08847
4.30627
4.5115
4.70433
4.88503
5.05395
5.21148
5.35808
5.49426
5.62059
5.7376
5.84593
5.94618
6.03894
6.12488
6.20462
6.27873
6.34785
6.41263
6.47368
6.53161
6.58701
6.64049
6.69268
6.74418
6.79558
6.84746
6.9004
6.95493
7.01159
7.07086
7.13322
7.19911
7.26896
7.34319
7.42215
7.50619
7.59557
7.69054
7.79128
7.898
8.01068
8.13022
8.255
8.393
8.52424
-8.1608
-8.16434
-8.16858
-8.17115
-8.17202
-8.17226
-8.17268
-8.17381
-8.17588
-8.17895
-8.18303
-8.18812
-8.19418
-8.20118
-8.20909
-8.21786
-8.22744
-8.2378
-8.24887
-8.26063
-8.27301
-8.28597
-8.29948
-8.31349
-8.32796
-8.34285
-8.35815
-8.3738
-8.38978
-8.40608
-8.42266
-8.43951
-8.45662
-8.47399
-8.4916
-8.50944
-8.52751
-8.5458
-8.5643
-8.583
-8.60191
-8.621
-8.64026
-8.65968
-8.67925
-8.69894
-8.71873
-8.73859
-8.75849
-8.77839
-8.79826
-8.81803
-8.83768
-8.85712
-8.87631
-8.89517
-8.91363
-8.9316
-8.94899
-8.9657
-8.98163
-8.99667
-9.01069
-9.02356
-9.03514
-9.04529
-9.05384
-9.06063
-9.06546
-9.06816
-9.06852
-9.06631
-9.06132
-9.0533
-9.04199
-9.02711
-9.0084
-8.98554
-8.95823
-8.92614
-8.88892
-8.84624
-8.79773
-8.74301
-8.68171
-8.61344
-8.53782
-8.45446
-8.36296
-8.26293
-8.15404
-8.03599
-7.90839
-7.77064
-7.6223
-7.46315
-7.29298
-7.11161
-6.9189
-6.71474
-6.49905
-6.27184
-6.03314
-5.78306
-5.52176
-5.24947
-4.96651
-4.67327
-4.37022
-4.05792
-3.737
-3.40818
-3.07227
-2.73013
-2.38271
-2.03103
-1.67616
-1.31922
-0.961373
-0.6038
-0.247697
0.105741
0.455332
0.799924
1.13842
1.46976
1.79298
2.10718
2.41156
2.70542
2.98816
3.25929
3.51844
3.76534
3.99984
4.22189
4.43154
4.62893
4.81427
4.9879
5.15016
5.30146
5.44232
5.57328
5.69478
5.80747
5.91196
6.00875
6.09847
6.18176
6.25918
6.33136
6.39893
6.4625
6.52268
6.58006
6.63525
6.68885
6.74148
6.79373
6.84619
6.89943
6.954
7.01042
7.06921
7.13084
7.19579
7.2645
7.33739
7.41482
7.49718
7.58476
7.67786
7.77667
7.88154
7.99239
8.11059
8.23324
8.37194
8.49288
-8.14636
-8.15201
-8.15954
-8.1646
-8.16724
-8.16879
-8.17012
-8.17173
-8.17394
-8.17693
-8.1808
-8.18558
-8.19128
-8.19787
-8.20533
-8.21362
-8.2227
-8.23253
-8.24306
-8.25426
-8.26607
-8.27846
-8.29138
-8.3048
-8.31869
-8.333
-8.34771
-8.36279
-8.37821
-8.39396
-8.41001
-8.42635
-8.44296
-8.45984
-8.47698
-8.49436
-8.51199
-8.52984
-8.54792
-8.56622
-8.58473
-8.60343
-8.62232
-8.64138
-8.6606
-8.67996
-8.69942
-8.71897
-8.73858
-8.7582
-8.7778
-8.79733
-8.81674
-8.83597
-8.85496
-8.87365
-8.89196
-8.9098
-8.9271
-8.94374
-8.95963
-8.97467
-8.98872
-9.00167
-9.01337
-9.02368
-9.03245
-9.0395
-9.04467
-9.04777
-9.04859
-9.04693
-9.04255
-9.03523
-9.02471
-9.01072
-8.99299
-8.97122
-8.94511
-8.91432
-8.87853
-8.83739
-8.79054
-8.7376
-8.67821
-8.61197
-8.53849
-8.4574
-8.3683
-8.2708
-8.16456
-8.0493
-7.92451
-7.78958
-7.64412
-7.48795
-7.32085
-7.14262
-6.95311
-6.75221
-6.53984
-6.31598
-6.08065
-5.83394
-5.57601
-5.30707
-5.02741
-4.7374
-4.43749
-4.12822
-3.8102
-3.48412
-3.15077
-2.81099
-2.46572
-2.11593
-1.76269
-1.4071
-1.05031
-0.693478
-0.337792
0.015563
0.365406
0.710583
1.05
1.3826
1.70739
2.02346
2.33
2.6263
2.91171
3.18573
3.44798
3.69815
3.93604
4.16159
4.37485
4.57588
4.76485
4.94216
5.1081
5.26295
5.40735
5.54176
5.66655
5.78234
5.88974
5.98926
6.08151
6.16711
6.24666
6.32075
6.39
6.45504
6.51646
6.57488
6.63089
6.6851
6.73812
6.79056
6.84302
6.89605
6.95021
7.00605
7.06408
7.12481
7.18873
7.25626
7.32785
7.40388
7.48474
7.57078
7.6623
7.75952
7.86281
7.97204
8.08881
8.20903
8.34677
8.45611
-8.13299
-8.14029
-8.15075
-8.15854
-8.16334
-8.16661
-8.16926
-8.17184
-8.17472
-8.17812
-8.18222
-8.18708
-8.19274
-8.19921
-8.20647
-8.2145
-8.22326
-8.23273
-8.24287
-8.25364
-8.26499
-8.27691
-8.28935
-8.30227
-8.31565
-8.32945
-8.34366
-8.35824
-8.37317
-8.38844
-8.40403
-8.41992
-8.4361
-8.45256
-8.4693
-8.4863
-8.50355
-8.52105
-8.53879
-8.55677
-8.57497
-8.59338
-8.61199
-8.6308
-8.64977
-8.6689
-8.68815
-8.7075
-8.72693
-8.74638
-8.76583
-8.78523
-8.80453
-8.82367
-8.84259
-8.86122
-8.8795
-8.89733
-8.91464
-8.93133
-8.9473
-8.96243
-8.97662
-8.98974
-9.00166
-9.01222
-9.02129
-9.0287
-9.03427
-9.03783
-9.03918
-9.0381
-9.03438
-9.02779
-9.01808
-9.00498
-8.98822
-8.96751
-8.94253
-8.91299
-8.87853
-8.8388
-8.79346
-8.74213
-8.68443
-8.61997
-8.54837
-8.46922
-8.38214
-8.28674
-8.18271
-8.06972
-7.9471
-7.81428
-7.67103
-7.5171
-7.35228
-7.17637
-6.98919
-6.79064
-6.58062
-6.35909
-6.12607
-5.88163
-5.62591
-5.35911
-5.08151
-4.79345
-4.49538
-4.18781
-3.87133
-3.54664
-3.21449
-2.87573
-2.53126
-2.18207
-1.82919
-1.47373
-1.11683
-0.759663
-0.40339
-0.0492077
0.301694
0.648147
0.989056
1.32337
1.65005
1.96818
2.27694
2.57561
2.8635
3.14006
3.40495
3.65786
3.89844
4.12671
4.34275
4.5465
4.7381
4.91808
5.08663
5.24392
5.39059
5.52709
5.65382
5.77138
5.88036
5.9813
6.0748
6.16147
6.24191
6.31673
6.38655
6.45198
6.51364
6.57215
6.62811
6.68212
6.73482
6.7868
6.83869
6.89104
6.94439
6.99933
7.05638
7.11606
7.17884
7.24519
7.31555
7.39032
7.46991
7.55466
7.6449
7.74085
7.84288
7.95074
8.06612
8.18395
8.32032
8.41901
-8.1235
-8.13196
-8.14446
-8.1545
-8.16132
-8.16628
-8.17034
-8.17404
-8.17777
-8.1818
-8.18632
-8.19146
-8.19726
-8.20375
-8.21096
-8.21885
-8.22742
-8.23663
-8.24647
-8.25691
-8.2679
-8.27943
-8.29145
-8.30396
-8.31691
-8.33028
-8.34405
-8.35821
-8.37273
-8.38759
-8.40278
-8.41829
-8.43411
-8.45022
-8.46663
-8.48331
-8.50027
-8.5175
-8.53499
-8.55272
-8.5707
-8.58891
-8.60735
-8.62598
-8.64481
-8.66381
-8.68294
-8.7022
-8.72154
-8.74094
-8.76034
-8.77971
-8.799
-8.81815
-8.83709
-8.85577
-8.87412
-8.89204
-8.90946
-8.92628
-8.94241
-8.95774
-8.97215
-8.98553
-8.99773
-9.00863
-9.01807
-9.0259
-9.03194
-9.03601
-9.03793
-9.03749
-9.03447
-9.02864
-9.01975
-9.00755
-8.99176
-8.9721
-8.94825
-8.9199
-8.88671
-8.84834
-8.80441
-8.75456
-8.69841
-8.63556
-8.56561
-8.48818
-8.40285
-8.30926
-8.20709
-8.09594
-7.97502
-7.84383
-7.70225
-7.55003
-7.38691
-7.2127
-7.02723
-6.83035
-6.62196
-6.40202
-6.17053
-5.92755
-5.6732
-5.40768
-5.13123
-4.84421
-4.54703
-4.24019
-3.9243
-3.60002
-3.26811
-2.9294
-2.5848
-2.23528
-1.88188
-1.5257
-1.1679
-0.809652
-0.452112
-0.096484
0.256014
0.604191
0.946963
1.28327
1.61205
1.9323
2.24327
2.54425
2.83443
3.11323
3.38044
3.63571
3.8785
4.10899
4.32733
4.53327
4.7269
4.90873
5.07894
5.23778
5.38581
5.5235
5.65128
5.76971
5.8794
5.98089
6.07479
6.16169
6.24223
6.31701
6.38665
6.45178
6.51302
6.57099
6.62631
6.6796
6.73147
6.78256
6.83347
6.88477
6.93704
6.99083
7.0467
7.10515
7.1667
7.2318
7.30091
7.37446
7.45284
7.53641
7.6255
7.72031
7.8212
7.9278
8.04183
8.15741
8.29261
8.38177
-8.11958
-8.12855
-8.1421
-8.15362
-8.16195
-8.16831
-8.17358
-8.17831
-8.18287
-8.18756
-8.19257
-8.19804
-8.20405
-8.21066
-8.21788
-8.22571
-8.23416
-8.24319
-8.25281
-8.26298
-8.27368
-8.28489
-8.29658
-8.30874
-8.32133
-8.33435
-8.34777
-8.36157
-8.37574
-8.39027
-8.40515
-8.42035
-8.43589
-8.45173
-8.46789
-8.48434
-8.50109
-8.51813
-8.53544
-8.55303
-8.57088
-8.58898
-8.60732
-8.62588
-8.64465
-8.66361
-8.68272
-8.70198
-8.72133
-8.74075
-8.7602
-8.77963
-8.799
-8.81824
-8.8373
-8.85611
-8.87459
-8.89268
-8.91029
-8.92732
-8.94369
-8.95927
-8.97397
-8.98766
-9.00022
-9.0115
-9.02137
-9.02966
-9.03621
-9.04084
-9.04337
-9.04359
-9.04128
-9.03623
-9.02819
-9.01689
-9.00207
-8.98344
-8.96069
-8.9335
-8.90153
-8.86444
-8.82184
-8.77338
-8.71865
-8.65726
-8.58882
-8.5129
-8.42909
-8.33706
-8.23648
-8.12677
-8.00712
-7.87718
-7.73687
-7.5859
-7.42404
-7.25105
-7.06676
-6.87101
-6.6637
-6.44477
-6.2142
-5.97203
-5.71839
-5.45346
-5.17747
-4.89075
-4.59372
-4.28688
-3.97081
-3.6462
-3.31378
-2.9744
-2.62895
-2.27839
-1.92379
-1.56626
-1.20697
-0.847099
-0.487789
-0.130263
0.224213
0.574404
0.919277
1.25778
1.58875
1.91111
2.22424
2.52749
2.81981
3.10061
3.37
3.62748
3.87229
4.10465
4.32463
4.53207
4.72708
4.91008
5.08128
5.24098
5.38969
5.52789
5.65603
5.77466
5.88439
5.98578
6.07944
6.16597
6.24601
6.32017
6.38909
6.4534
6.51372
6.5707
6.62496
6.67712
6.72781
6.77766
6.82729
6.87729
6.92823
6.98068
7.0352
7.09231
7.15253
7.21633
7.28417
7.3565
7.43371
7.51614
7.60414
7.69788
7.79769
7.9031
8.01583
8.12935
8.26364
8.34438
-8.12102
-8.13002
-8.14382
-8.15609
-8.1654
-8.17274
-8.17894
-8.18449
-8.18975
-8.195
-8.20045
-8.20624
-8.21247
-8.2192
-8.22646
-8.23426
-8.24262
-8.25152
-8.26096
-8.27092
-8.28139
-8.29234
-8.30376
-8.31563
-8.32794
-8.34067
-8.35381
-8.36733
-8.38124
-8.39552
-8.41015
-8.42514
-8.44046
-8.45613
-8.47212
-8.48843
-8.50505
-8.52199
-8.53922
-8.55674
-8.57455
-8.59263
-8.61096
-8.62954
-8.64835
-8.66735
-8.68654
-8.70587
-8.72532
-8.74486
-8.76443
-8.784
-8.80352
-8.82293
-8.84217
-8.86118
-8.87988
-8.8982
-8.91605
-8.93335
-8.95
-8.96589
-8.98093
-8.99498
-9.00792
-9.01963
-9.02995
-9.03873
-9.04581
-9.05102
-9.05417
-9.05507
-9.05349
-9.04922
-9.04201
-9.03161
-9.01775
-9.00012
-8.97844
-8.95238
-8.92158
-8.88571
-8.84437
-8.7972
-8.74379
-8.68374
-8.61664
-8.54206
-8.4596
-8.36894
-8.26971
-8.16103
-8.04223
-7.91324
-7.77385
-7.62378
-7.46278
-7.29062
-7.10709
-6.91204
-6.70534
-6.48693
-6.25677
-6.0149
-5.76142
-5.49651
-5.2204
-4.9334
-4.63592
-4.32845
-4.0116
-3.68603
-3.35249
-3.01185
-2.66496
-2.3128
-1.95644
-1.59704
-1.23579
-0.873882
-0.512406
-0.152621
0.204114
0.556491
0.903627
1.24451
1.57775
1.90219
2.21758
2.52321
2.81773
3.10068
3.37197
3.63106
3.87746
4.11121
4.33233
4.54074
4.73659
4.9202
5.09183
5.25182
5.40063
5.53874
5.66666
5.78493
5.89413
5.99487
6.08774
6.17338
6.25242
6.32549
6.39322
6.45627
6.51527
6.57087
6.62371
6.67441
6.72362
6.77196
6.82007
6.86855
6.91798
6.96894
7.02199
7.07766
7.13649
7.19895
7.26551
7.33662
7.41268
7.49403
7.58099
7.67371
7.77251
7.8768
7.98831
8.09998
8.2335
8.30701
-8.1272
-8.13587
-8.14931
-8.1617
-8.17146
-8.17938
-8.18618
-8.19229
-8.19805
-8.20372
-8.20951
-8.21555
-8.22194
-8.22876
-8.23605
-8.24383
-8.25211
-8.26089
-8.27018
-8.27997
-8.29024
-8.30098
-8.31219
-8.32384
-8.33593
-8.34844
-8.36136
-8.37469
-8.38841
-8.40251
-8.41699
-8.43183
-8.44704
-8.46261
-8.47852
-8.49477
-8.51136
-8.52828
-8.54552
-8.56307
-8.58092
-8.59907
-8.61749
-8.63617
-8.65509
-8.67423
-8.69356
-8.71305
-8.73267
-8.75239
-8.77216
-8.79194
-8.81167
-8.8313
-8.85078
-8.87003
-8.88899
-8.90758
-8.92572
-8.94332
-8.96029
-8.97652
-8.99191
-9.00634
-9.01969
-9.03182
-9.04261
-9.05189
-9.05951
-9.06529
-9.06906
-9.07062
-9.06976
-9.06625
-9.05986
-9.05033
-9.03739
-9.02075
-9.0001
-8.97511
-8.94543
-8.91071
-8.87056
-8.82459
-8.7724
-8.71357
-8.64767
-8.57427
-8.49299
-8.40351
-8.30532
-8.19733
-8.07909
-7.95074
-7.81198
-7.6625
-7.50205
-7.33038
-7.14727
-6.95255
-6.74608
-6.52778
-6.29761
-6.05561
-5.80185
-5.5365
-5.2598
-4.97202
-4.67358
-4.36498
-4.04683
-3.71979
-3.38465
-3.04225
-2.69346
-2.33921
-1.98066
-1.61898
-1.25544
-0.891211
-0.527259
-0.164913
0.19429
0.548965
0.898578
1.24213
1.57791
1.90489
2.2226
2.53022
2.8267
3.11151
3.38435
3.64474
3.89233
4.12704
4.34887
4.55781
4.75401
4.93774
5.1093
5.26905
5.41745
5.55498
5.68216
5.79954
5.90773
6.00733
6.09896
6.18325
6.26086
6.33241
6.39858
6.45999
6.51732
6.57122
6.62233
6.6713
6.71878
6.76539
6.81179
6.85857
6.90634
6.95568
7.00716
7.06132
7.11871
7.17981
7.24509
7.315
7.38995
7.47024
7.55621
7.64799
7.74582
7.84907
7.95944
8.06949
8.2023
8.26981
-8.13731
-8.14536
-8.15798
-8.16997
-8.17972
-8.18782
-8.19488
-8.20129
-8.20734
-8.21326
-8.21925
-8.22544
-8.23192
-8.23879
-8.24607
-8.2538
-8.26199
-8.27067
-8.27983
-8.28947
-8.29958
-8.31015
-8.32119
-8.33267
-8.3446
-8.35696
-8.36975
-8.38295
-8.39655
-8.41056
-8.42497
-8.43976
-8.45494
-8.47049
-8.48641
-8.50269
-8.51933
-8.53632
-8.55365
-8.57132
-8.5893
-8.60759
-8.62617
-8.64502
-8.66413
-8.68347
-8.70302
-8.72273
-8.74259
-8.76255
-8.78256
-8.80259
-8.82258
-8.84248
-8.86222
-8.88175
-8.90099
-8.91987
-8.93831
-8.95622
-8.97351
-8.99008
-9.00582
-9.02062
-9.03436
-9.04691
-9.05814
-9.06789
-9.07602
-9.08235
-9.08671
-9.08889
-9.08871
-9.08593
-9.08031
-9.07161
-9.05955
-9.04383
-9.02415
-9.00018
-8.97156
-8.93792
-8.89887
-8.85401
-8.80293
-8.74519
-8.68036
-8.608
-8.52778
-8.43932
-8.34173
-8.23403
-8.11618
-7.98823
-7.84985
-7.70072
-7.54055
-7.36909
-7.18611
-6.99141
-6.78486
-6.56635
-6.33583
-6.09333
-5.83891
-5.57275
-5.29506
-5.00609
-4.70627
-4.39612
-4.07625
-3.74735
-3.41019
-3.06569
-2.71464
-2.35794
-1.99683
-1.63257
-1.2665
-0.899768
-0.533054
-0.167783
0.194271
0.551885
0.904244
1.25025
1.58848
1.91789
2.23775
2.54722
2.84542
3.13177
3.40586
3.66725
3.91564
4.15092
4.37306
4.58209
4.77818
4.96158
5.13261
5.29165
5.43916
5.57564
5.70163
5.81768
5.92442
6.02246
6.11243
6.19499
6.27079
6.34048
6.40473
6.46421
6.51957
6.5715
6.62064
6.66765
6.71318
6.75788
6.8024
6.84736
6.89335
6.94099
6.99083
7.04345
7.09937
7.1591
7.22311
7.29184
7.3657
7.445
7.53003
7.62091
7.71784
7.82013
7.92945
8.03811
8.17019
8.2329
-8.15038
-8.15762
-8.16908
-8.18027
-8.18962
-8.19756
-8.20459
-8.21103
-8.21715
-8.22315
-8.22919
-8.23541
-8.24191
-8.24875
-8.25597
-8.26363
-8.27173
-8.2803
-8.28933
-8.29884
-8.30882
-8.31927
-8.33019
-8.34156
-8.35339
-8.36566
-8.37838
-8.39152
-8.4051
-8.4191
-8.43351
-8.44833
-8.46355
-8.47918
-8.49519
-8.51159
-8.52836
-8.5455
-8.563
-8.58085
-8.59903
-8.61753
-8.63634
-8.65544
-8.6748
-8.69439
-8.7142
-8.73418
-8.7543
-8.77453
-8.79482
-8.81512
-8.83539
-8.85556
-8.87558
-8.89538
-8.9149
-8.93406
-8.95279
-8.97098
-8.98857
-9.00544
-9.02149
-9.03662
-9.05071
-9.06362
-9.07524
-9.08541
-9.09398
-9.1008
-9.10568
-9.10843
-9.10886
-9.10673
-9.10183
-9.09388
-9.08263
-9.06777
-9.04899
-9.02595
-8.9983
-8.96565
-8.92761
-8.88377
-8.83368
-8.77692
-8.71301
-8.64159
-8.56232
-8.4746
-8.3771
-8.26935
-8.15175
-8.02405
-7.88586
-7.73686
-7.57676
-7.40528
-7.22219
-7.02727
-6.82037
-6.60138
-6.37023
-6.12693
-5.87156
-5.60427
-5.3253
-5.03482
-4.73326
-4.42122
-4.09932
-3.76823
-3.42878
-3.08196
-2.72848
-2.36905
-2.00505
-1.63785
-1.2687
-0.898817
-0.529152
-0.161038
0.203958
0.564541
0.919653
1.26814
1.60873
1.94036
2.26217
2.57332
2.87299
3.16056
3.43557
3.69763
3.94643
4.18186
4.40391
4.61261
4.80815
4.99078
5.16084
5.31873
5.46492
5.59993
5.7243
5.83863
5.94352
6.03962
6.12759
6.20807
6.28174
6.34926
6.41132
6.46859
6.52175
6.57148
6.61845
6.66331
6.70674
6.7494
6.79193
6.83496
6.87911
6.92497
6.97315
7.02419
7.07864
7.13702
7.19978
7.26737
7.3402
7.41854
7.50269
7.59274
7.68884
7.79025
7.8986
8.00607
8.13739
8.19647
-8.16545
-8.17175
-8.18183
-8.1919
-8.20054
-8.20803
-8.21477
-8.22102
-8.22701
-8.23291
-8.23887
-8.24501
-8.25142
-8.25816
-8.26528
-8.27283
-8.28082
-8.28927
-8.29819
-8.30759
-8.31748
-8.32784
-8.33868
-8.35
-8.36179
-8.37404
-8.38676
-8.39992
-8.41354
-8.4276
-8.4421
-8.45703
-8.47238
-8.48815
-8.50433
-8.52091
-8.53789
-8.55524
-8.57298
-8.59107
-8.60951
-8.62828
-8.64736
-8.66673
-8.68637
-8.70625
-8.72634
-8.74661
-8.76701
-8.78751
-8.80807
-8.82864
-8.84916
-8.86959
-8.88985
-8.90989
-8.92965
-8.94904
-8.96798
-8.98641
-9.00422
-9.02132
-9.03761
-9.05299
-9.06734
-9.08053
-9.09245
-9.10294
-9.11187
-9.11908
-9.12439
-9.12761
-9.12855
-9.12698
-9.12269
-9.1154
-9.10486
-9.09076
-9.07279
-9.05059
-9.02381
-8.99206
-8.95492
-8.91197
-8.86276
-8.80682
-8.74373
-8.67317
-8.59468
-8.50705
-8.40922
-8.30145
-8.18395
-8.05634
-7.91819
-7.76913
-7.60891
-7.43724
-7.25385
-7.05851
-6.85106
-6.63136
-6.39936
-6.15504
-5.89848
-5.62987
-5.34948
-5.05742
-4.75396
-4.43983
-4.11566
-3.78213
-3.44004
-3.09034
-2.73393
-2.37162
-2.00463
-1.63429
-1.26188
-0.888673
-0.515848
-0.144738
0.22321
0.586669
0.94445
1.29535
1.63815
1.97178
2.29532
2.60788
2.90871
3.19715
3.47274
3.73507
3.98389
4.21906
4.44059
4.64853
4.84308
5.02452
5.19319
5.34951
5.49397
5.62711
5.7495
5.86172
5.96443
6.05826
6.1439
6.22201
6.29328
6.35838
6.41801
6.47287
6.52363
6.57099
6.61562
6.65821
6.69942
6.73993
6.78039
6.82144
6.86369
6.90777
6.95427
7.00375
7.05675
7.1138
7.17536
7.24186
7.3137
7.39117
7.4745
7.56378
7.65911
7.75974
7.86722
7.97372
8.10419
8.16075
-8.1816
-8.1869
-8.19547
-8.20423
-8.21192
-8.21872
-8.22494
-8.23079
-8.23646
-8.2421
-8.24784
-8.25378
-8.26
-8.26658
-8.27355
-8.28095
-8.28881
-8.29714
-8.30596
-8.31528
-8.3251
-8.33542
-8.34624
-8.35755
-8.36936
-8.38166
-8.39444
-8.4077
-8.42143
-8.43562
-8.45028
-8.46538
-8.48093
-8.49691
-8.51332
-8.53014
-8.54737
-8.56499
-8.583
-8.60137
-8.6201
-8.63916
-8.65853
-8.67819
-8.69811
-8.71827
-8.73862
-8.75915
-8.7798
-8.80054
-8.82132
-8.8421
-8.86282
-8.88342
-8.90386
-8.92406
-8.94396
-8.96348
-8.98255
-9.0011
-9.01902
-9.03624
-9.05265
-9.06815
-9.08263
-9.09597
-9.10805
-9.11875
-9.1279
-9.13537
-9.14098
-9.14455
-9.14586
-9.14472
-9.14091
-9.13416
-9.12421
-9.11075
-9.09346
-9.07199
-9.04596
-9.01498
-8.97861
-8.93642
-8.88793
-8.83271
-8.77038
-8.70057
-8.62231
-8.53408
-8.43578
-8.32803
-8.21057
-8.08299
-7.94487
-7.79576
-7.63537
-7.46343
-7.27966
-7.08383
-6.87574
-6.65525
-6.42229
-6.17684
-5.91896
-5.64881
-5.36665
-5.07274
-4.76732
-4.45097
-4.12435
-3.78816
-3.44321
-3.09044
-2.73081
-2.36529
-1.99507
-1.62144
-1.2457
-0.869164
-0.493136
-0.118985
0.251875
0.61809
0.978398
1.33156
1.67636
2.01172
2.33668
2.65035
2.95197
3.24091
3.51667
3.77887
4.02727
4.26176
4.48233
4.68908
4.88222
5.06203
5.2289
5.38326
5.52562
5.65652
5.77657
5.88636
5.98657
6.07785
6.1609
6.23639
6.30502
6.36749
6.42451
6.47678
6.525
6.56986
6.61205
6.65227
6.69119
6.7295
6.76785
6.80689
6.84724
6.88954
6.93438
6.98233
7.03393
7.08971
7.15012
7.2156
7.28654
7.3632
7.4458
7.53439
7.62904
7.72897
7.83567
7.9414
8.07094
8.12602
-8.19803
-8.20232
-8.20934
-8.21668
-8.22325
-8.22917
-8.23467
-8.23994
-8.24511
-8.25032
-8.2557
-8.26132
-8.26727
-8.2736
-8.28036
-8.28758
-8.29528
-8.3035
-8.31223
-8.32149
-8.33128
-8.34159
-8.35244
-8.36381
-8.3757
-8.3881
-8.40101
-8.41442
-8.42832
-8.44271
-8.45758
-8.47291
-8.4887
-8.50493
-8.5216
-8.5387
-8.55621
-8.57411
-8.5924
-8.61105
-8.63005
-8.64938
-8.66901
-8.68891
-8.70907
-8.72945
-8.75001
-8.77072
-8.79153
-8.81241
-8.83332
-8.85419
-8.87498
-8.89565
-8.91612
-8.93633
-8.95623
-8.97573
-8.99478
-9.01328
-9.03115
-9.04832
-9.06467
-9.08013
-9.09457
-9.10789
-9.11997
-9.13069
-9.13991
-9.14747
-9.15323
-9.15701
-9.15858
-9.15774
-9.15428
-9.14794
-9.13846
-9.12553
-9.10882
-9.08797
-9.0626
-9.03228
-8.99659
-8.95506
-8.90724
-8.85273
-8.79117
-8.72172
-8.64262
-8.55351
-8.45519
-8.34753
-8.23011
-8.10252
-7.96436
-7.8152
-7.65465
-7.48244
-7.29827
-7.10189
-6.89311
-6.67178
-6.43779
-6.19113
-5.93185
-5.66007
-5.37603
-5.08001
-4.77235
-4.45358
-4.12434
-3.78533
-3.4374
-3.08147
-2.71854
-2.3497
-1.97613
-1.59913
-1.22003
-0.840203
-0.461011
-0.0838699
0.289796
0.658604
1.02124
1.37643
1.72297
2.05974
2.38577
2.70018
3.0022
3.2912
3.56669
3.82833
4.07586
4.30921
4.52838
4.73351
4.92481
5.10259
5.26726
5.41928
5.55917
5.6875
5.80489
5.91197
6.00941
6.09789
6.17812
6.25078
6.3166
6.37629
6.43056
6.48012
6.52569
6.56797
6.60766
6.64546
6.68206
6.71815
6.75438
6.79143
6.82992
6.87047
6.9137
6.96018
7.01045
7.06503
7.1244
7.18894
7.25906
7.33501
7.41695
7.50495
7.59902
7.69836
7.80438
7.90952
8.03805
8.09263
-8.21411
-8.21745
-8.22297
-8.22884
-8.23418
-8.23906
-8.24366
-8.24813
-8.25262
-8.25724
-8.26209
-8.26726
-8.27282
-8.27882
-8.2853
-8.2923
-8.29984
-8.30793
-8.31658
-8.3258
-8.33559
-8.34595
-8.35686
-8.36833
-8.38034
-8.3929
-8.40599
-8.41959
-8.43371
-8.44833
-8.46343
-8.47901
-8.49506
-8.51155
-8.52848
-8.54583
-8.56359
-8.58174
-8.60026
-8.61913
-8.63833
-8.65784
-8.67764
-8.69769
-8.71796
-8.73843
-8.75906
-8.77982
-8.80065
-8.82151
-8.84237
-8.86317
-8.88386
-8.90439
-8.92471
-8.94475
-8.96445
-8.98374
-9.00256
-9.02082
-9.03845
-9.05536
-9.07148
-9.08669
-9.10091
-9.11403
-9.12593
-9.1365
-9.14561
-9.15311
-9.15885
-9.16266
-9.16435
-9.1637
-9.16048
-9.15446
-9.14535
-9.13286
-9.11664
-9.09632
-9.07152
-9.04179
-9.0067
-8.96581
-8.91873
-8.86498
-8.80372
-8.73318
-8.65292
-8.56377
-8.46564
-8.35814
-8.24082
-8.11325
-7.97502
-7.82573
-7.66499
-7.49247
-7.30788
-7.11094
-6.90144
-6.67922
-6.44418
-6.19627
-5.93553
-5.66209
-5.37616
-5.07802
-4.76807
-4.44681
-4.11488
-3.77301
-3.42205
-3.06294
-2.69673
-2.32454
-1.94761
-1.56725
-1.18485
-0.801811
-0.419562
-0.0395615
0.336738
0.707919
1.07263
1.42956
1.7775
2.11532
2.44203
2.75675
3.05872
3.34733
3.6221
3.88269
4.1289
4.36064
4.57797
4.78102
4.97006
5.14541
5.3075
5.45683
5.59393
5.71939
5.83385
5.93796
6.03241
6.11789
6.19512
6.26481
6.32769
6.38448
6.43591
6.48269
6.52556
6.56522
6.60239
6.63777
6.67205
6.70594
6.74011
6.77521
6.81189
6.85077
6.89247
6.93758
6.98661
7.0401
7.09852
7.16224
7.23165
7.30698
7.38839
7.47589
7.56948
7.66835
7.77378
7.87852
8.00598
8.06095
-8.22948
-8.23198
-8.23612
-8.24053
-8.24453
-8.24819
-8.25168
-8.25515
-8.25872
-8.26253
-8.26667
-8.27122
-8.27626
-8.28182
-8.28795
-8.29468
-8.30201
-8.30996
-8.31853
-8.32773
-8.33753
-8.34795
-8.35896
-8.37056
-8.38274
-8.39546
-8.40874
-8.42255
-8.43688
-8.45172
-8.46705
-8.48284
-8.4991
-8.51579
-8.53291
-8.55044
-8.56835
-8.58663
-8.60526
-8.62421
-8.64347
-8.663
-8.68279
-8.70279
-8.723
-8.74336
-8.76384
-8.78441
-8.80503
-8.82564
-8.84622
-8.86671
-8.88706
-8.90723
-8.92715
-8.94678
-8.96605
-8.98489
-9.00325
-9.02104
-9.0382
-9.05465
-9.07031
-9.08508
-9.09888
-9.11161
-9.12316
-9.13342
-9.14226
-9.14955
-9.15513
-9.15885
-9.16051
-9.15992
-9.15684
-9.15103
-9.14221
-9.13007
-9.11426
-9.09439
-9.07008
-9.04089
-9.00642
-8.96627
-8.91995
-8.8662
-8.80336
-8.73154
-8.65134
-8.56253
-8.4647
-8.35744
-8.24029
-8.11282
-7.97461
-7.82525
-7.66436
-7.49159
-7.30661
-7.10915
-6.89899
-6.67594
-6.43988
-6.19077
-5.92864
-5.65359
-5.36584
-5.06568
-4.75349
-4.42981
-4.09526
-3.7506
-3.39668
-3.03449
-2.66508
-2.28965
-1.90947
-1.52588
-1.14032
-0.754236
-0.36912
0.0135272
0.392213
0.765483
1.13194
1.49027
1.83923
2.17768
2.50463