/*--------------------------------*- C++ -*----------------------------------*\
| =========                 |                                                 |
| \\      /  F ield         | OpenFOAM: The Open Source CFD Toolbox           |
|  \\    /   O peration     | Version:  2.2.x                                 |
|   \\  /    A nd           | Web:      www.OpenFOAM.org                      |
|    \\/     M anipulation  |                                                 |
\*---------------------------------------------------------------------------*/
FoamFile
{
    version     2.0;
    format      ascii;
    class       surfaceScalarField;
    location    "500";
    object      phi;
}
// * * * * * * * * * * * * * * * * * * * * * * * * * * * * * * * * * * * * * //

dimensions      [0 3 -1 0 0 0 0];

internalField   nonuniform List<scalar> 
24170
(
3.08816e-06
4.57349e-08
3.0142e-06
7.3957e-08
2.95205e-06
6.21497e-08
2.88976e-06
6.22851e-08
2.83019e-06
5.95684e-08
2.77476e-06
5.54336e-08
2.7235e-06
5.12647e-08
2.67613e-06
4.73695e-08
2.63235e-06
4.37758e-08
2.59188e-06
4.04734e-08
2.55443e-06
3.74433e-08
2.51977e-06
3.4662e-08
2.48766e-06
3.21072e-08
2.4579e-06
2.97665e-08
2.43023e-06
2.76671e-08
2.40412e-06
2.6104e-08
2.37737e-06
2.67591e-08
3.03166e-08
2.34705e-06
3.46858e-06
3.35956e-08
3.45793e-06
8.46122e-08
3.44341e-06
7.66678e-08
3.42859e-06
7.70957e-08
3.41241e-06
7.57478e-08
3.39528e-06
7.25615e-08
3.37753e-06
6.90184e-08
3.35939e-06
6.55067e-08
3.3411e-06
6.20705e-08
3.32284e-06
5.87274e-08
3.30479e-06
5.54938e-08
3.28708e-06
5.23792e-08
3.26979e-06
4.93902e-08
3.25301e-06
4.65437e-08
3.23678e-06
4.39009e-08
3.2212e-06
4.16846e-08
3.20776e-06
4.0195e-08
3.76015e-08
3.20048e-06
3.80922e-06
3.65649e-08
3.81786e-06
7.59776e-08
3.8201e-06
7.44283e-08
3.82217e-06
7.50168e-08
3.82298e-06
7.49413e-08
3.82246e-06
7.30774e-08
3.82096e-06
7.05242e-08
3.8187e-06
6.7762e-08
3.81587e-06
6.48997e-08
3.81261e-06
6.1989e-08
3.80903e-06
5.9073e-08
3.80523e-06
5.61815e-08
3.80128e-06
5.33353e-08
3.79727e-06
5.05572e-08
3.79328e-06
4.78886e-08
3.78957e-06
4.53973e-08
3.78681e-06
4.29553e-08
3.90117e-08
3.7854e-06
4.20602e-06
3.51064e-08
4.21523e-06
6.67605e-08
4.21958e-06
7.00846e-08
4.22322e-06
7.13719e-08
4.22621e-06
7.19473e-08
4.22849e-06
7.08006e-08
4.23027e-06
6.87432e-08
4.2317e-06
6.63266e-08
4.23287e-06
6.37284e-08
4.23384e-06
6.10255e-08
4.23464e-06
5.82719e-08
4.23532e-06
5.55033e-08
4.23591e-06
5.27412e-08
4.23647e-06
4.99994e-08
4.23707e-06
4.72842e-08
4.23791e-06
4.45603e-08
4.23929e-06
4.15783e-08
3.73446e-08
4.24095e-06
4.64072e-06
3.16931e-08
4.64866e-06
5.88185e-08
4.65362e-06
6.51253e-08
4.65779e-06
6.71956e-08
4.66162e-06
6.8122e-08
4.66499e-06
6.74286e-08
4.668e-06
6.57346e-08
4.67074e-06
6.35849e-08
4.67327e-06
6.11951e-08
4.67564e-06
5.86593e-08
4.67787e-06
5.60374e-08
4.68001e-06
5.33682e-08
4.68208e-06
5.06719e-08
4.68412e-06
4.79537e-08
4.68621e-06
4.5197e-08
4.68844e-06
4.23308e-08
4.69087e-06
3.91436e-08
3.51592e-08
4.69306e-06
5.11835e-06
2.79406e-08
5.12555e-06
5.1613e-08
5.13107e-06
5.96041e-08
5.1358e-06
6.24639e-08
5.14019e-06
6.37307e-08
5.14418e-06
6.34424e-08
5.14781e-06
6.21022e-08
5.15118e-06
6.02177e-08
5.15434e-06
5.80306e-08
5.15735e-06
5.56534e-08
5.16023e-06
5.31547e-08
5.16302e-06
5.05773e-08
5.16575e-06
4.79423e-08
5.16845e-06
4.52508e-08
5.17117e-06
4.24787e-08
5.17395e-06
3.95564e-08
5.17675e-06
3.63396e-08
3.26215e-08
5.17929e-06
5.64454e-06
2.44035e-08
5.65123e-06
4.49246e-08
5.6571e-06
5.37325e-08
5.66227e-06
5.72937e-08
5.6671e-06
5.89052e-08
5.67155e-06
5.89872e-08
5.67567e-06
5.79863e-08
5.67952e-06
5.6366e-08
5.68317e-06
5.43838e-08
5.68665e-06
5.2169e-08
5.69e-06
4.97991e-08
5.69326e-06
4.73218e-08
5.69644e-06
4.47609e-08
5.69957e-06
4.21189e-08
5.70268e-06
3.93756e-08
5.70575e-06
3.64817e-08
5.70873e-06
3.33594e-08
2.99504e-08
5.7114e-06
4.40852e-06
2.199e-08
4.41295e-06
4.05026e-08
4.41726e-06
4.94169e-08
4.42118e-06
5.33751e-08
4.42486e-06
5.52234e-08
4.42831e-06
5.55356e-08
4.43154e-06
5.47586e-08
4.43458e-06
5.33257e-08
4.43747e-06
5.14943e-08
4.44023e-06
4.94024e-08
4.4429e-06
4.71335e-08
4.44548e-06
4.47389e-08
4.448e-06
4.22453e-08
4.45046e-06
3.96587e-08
4.45287e-06
3.69662e-08
4.45521e-06
3.41358e-08
4.45745e-06
3.11254e-08
2.79389e-08
4.45946e-06
5.14232e-06
1.95304e-08
5.14682e-06
3.60011e-08
5.15145e-06
4.47827e-08
5.15581e-06
4.90118e-08
5.15998e-06
5.1056e-08
5.16394e-06
5.15801e-08
5.16767e-06
5.10228e-08
5.17121e-06
4.97837e-08
5.17459e-06
4.81154e-08
5.17783e-06
4.61615e-08
5.18096e-06
4.40103e-08
5.18398e-06
4.17168e-08
5.18691e-06
3.93117e-08
5.18976e-06
3.68066e-08
5.19253e-06
3.41982e-08
5.19519e-06
3.14728e-08
5.1977e-06
2.86175e-08
2.56731e-08
5.19997e-06
5.99827e-06
1.70565e-08
6.00278e-06
3.14836e-08
6.00768e-06
3.98895e-08
6.01245e-06
4.42361e-08
6.0171e-06
4.64098e-08
6.02157e-06
4.71089e-08
6.02584e-06
4.67535e-08
6.02992e-06
4.57052e-08
6.03382e-06
4.42066e-08
6.03758e-06
4.24033e-08
6.04121e-06
4.03866e-08
6.04471e-06
3.82151e-08
6.04809e-06
3.5924e-08
6.05137e-06
3.35316e-08
6.05452e-06
3.10454e-08
6.05753e-06
2.84679e-08
6.06034e-06
2.58077e-08
2.31212e-08
6.06289e-06
6.99672e-06
1.45991e-08
7.0012e-06
2.70099e-08
7.00629e-06
3.47938e-08
7.01144e-06
3.90855e-08
7.01655e-06
4.13053e-08
7.02153e-06
4.21254e-08
7.02634e-06
4.19399e-08
7.03098e-06
4.10695e-08
7.03544e-06
3.97406e-08
7.03975e-06
3.80969e-08
7.04391e-06
3.62308e-08
7.04792e-06
3.42034e-08
7.05179e-06
3.20545e-08
7.05551e-06
2.98094e-08
7.05907e-06
2.74851e-08
7.06244e-06
2.50969e-08
7.06558e-06
2.26668e-08
2.02534e-08
7.06845e-06
8.16143e-06
1.21852e-08
8.16582e-06
2.26165e-08
8.17106e-06
2.95536e-08
8.17654e-06
3.36027e-08
8.18208e-06
3.57666e-08
8.18757e-06
3.66395e-08
8.19293e-06
3.65796e-08
8.19813e-06
3.58653e-08
8.20317e-06
3.47009e-08
8.20804e-06
3.3223e-08
8.21275e-06
3.15229e-08
8.21729e-06
2.96629e-08
8.22166e-06
2.76862e-08
8.22585e-06
2.56238e-08
8.22983e-06
2.35003e-08
8.23359e-06
2.13389e-08
8.23709e-06
1.91673e-08
1.70397e-08
8.2403e-06
9.52008e-06
9.83185e-09
9.52438e-06
1.83178e-08
9.52971e-06
2.42178e-08
9.53549e-06
2.78298e-08
9.54144e-06
2.98175e-08
9.54741e-06
3.06614e-08
9.55332e-06
3.06721e-08
9.5591e-06
3.00838e-08
9.56473e-06
2.90736e-08
9.57019e-06
2.7766e-08
9.57546e-06
2.62474e-08
9.58055e-06
2.4579e-08
9.58543e-06
2.28055e-08
9.59009e-06
2.09612e-08
9.59451e-06
1.90746e-08
9.59868e-06
1.71724e-08
9.60257e-06
1.52828e-08
1.3452e-08
9.60615e-06
1.1105e-05
7.5421e-09
1.11092e-05
1.41051e-08
1.11146e-05
1.88137e-08
1.11206e-05
2.18004e-08
1.1127e-05
2.34767e-08
1.11334e-05
2.41976e-08
1.11399e-05
2.42134e-08
1.11463e-05
2.3713e-08
1.11525e-05
2.28416e-08
1.11586e-05
2.17061e-08
1.11644e-05
2.03837e-08
1.11701e-05
1.89312e-08
1.11755e-05
1.73916e-08
1.11807e-05
1.57989e-08
1.11855e-05
1.41821e-08
1.11902e-05
1.2567e-08
1.11945e-05
1.09791e-08
9.45609e-09
1.11985e-05
1.29539e-05
5.30034e-09
1.2958e-05
9.94259e-09
1.29635e-05
1.33334e-08
1.29698e-05
1.5522e-08
1.29765e-05
1.67456e-08
1.29835e-05
1.72405e-08
1.29905e-05
1.7189e-08
1.29975e-05
1.67317e-08
1.30043e-05
1.59785e-08
1.3011e-05
1.50135e-08
1.30175e-05
1.38999e-08
1.30238e-05
1.26855e-08
1.30298e-05
1.14079e-08
1.30355e-05
1.00971e-08
1.30409e-05
8.77879e-09
1.3046e-05
7.47515e-09
1.30507e-05
6.20689e-09
5.00333e-09
1.30552e-05
1.51107e-05
3.06709e-09
1.51149e-05
5.7579e-09
1.51205e-05
7.71541e-09
1.51271e-05
8.95047e-09
1.51342e-05
9.58301e-09
1.51417e-05
9.74701e-09
1.51493e-05
9.5539e-09
1.5157e-05
9.0927e-09
1.51645e-05
8.43488e-09
1.51719e-05
7.63678e-09
1.51791e-05
6.74237e-09
1.5186e-05
5.78614e-09
1.51926e-05
4.79574e-09
1.51989e-05
3.7939e-09
1.52049e-05
2.79972e-09
1.52105e-05
1.8296e-09
1.52158e-05
8.98321e-10
2.75941e-11
1.52208e-05
1.76267e-05
7.70704e-10
1.76311e-05
1.41883e-09
1.7637e-05
1.8123e-09
1.7644e-05
1.94632e-09
1.76517e-05
1.85902e-09
1.76599e-05
1.59495e-09
1.76682e-05
1.19336e-09
1.76766e-05
6.87883e-10
1.7685e-05
1.07401e-10
1.76931e-05
-5.24047e-10
1.7701e-05
-1.18659e-09
1.77087e-05
-1.86371e-09
1.7716e-05
-2.54143e-09
1.7723e-05
-3.20775e-09
1.77297e-05
-3.85237e-09
1.7736e-05
-4.46638e-09
1.77419e-05
-5.0416e-09
-5.56344e-09
1.77475e-05
1.78284e-05
-1.40422e-09
1.78325e-05
-2.71052e-09
1.78382e-05
-3.84117e-09
1.78449e-05
-4.7998e-09
1.78524e-05
-5.6111e-09
1.78603e-05
-6.31152e-09
1.78684e-05
-6.93122e-09
1.78766e-05
-7.48996e-09
1.78847e-05
-8.0008e-09
1.78926e-05
-8.47233e-09
1.79004e-05
-8.90967e-09
1.79078e-05
-9.31529e-09
1.7915e-05
-9.68975e-09
1.79218e-05
-1.00324e-08
1.79283e-05
-1.03421e-08
1.79344e-05
-1.06171e-08
1.79402e-05
-1.08551e-08
-1.10478e-08
1.79457e-05
1.58833e-05
-3.34928e-09
1.5887e-05
-6.41239e-09
1.58921e-05
-8.91259e-09
1.58981e-05
-1.0832e-08
1.59047e-05
-1.22611e-08
1.59117e-05
-1.33227e-08
1.59189e-05
-1.41128e-08
1.59261e-05
-1.46985e-08
1.59333e-05
-1.51303e-08
1.59402e-05
-1.54466e-08
1.5947e-05
-1.56747e-08
1.59535e-05
-1.58339e-08
1.59598e-05
-1.59374e-08
1.59657e-05
-1.59947e-08
1.59714e-05
-1.60121e-08
1.59768e-05
-1.59942e-08
1.59819e-05
-1.59433e-08
-1.58555e-08
1.59867e-05
1.41505e-05
-5.17044e-09
1.4154e-05
-9.90922e-09
1.41588e-05
-1.36949e-08
1.41644e-05
-1.64563e-08
1.41705e-05
-1.83875e-08
1.41769e-05
-1.9723e-08
1.41834e-05
-2.06216e-08
1.41899e-05
-2.11925e-08
1.41963e-05
-2.15213e-08
1.42025e-05
-2.16731e-08
1.42086e-05
-2.16946e-08
1.42143e-05
-2.16188e-08
1.42199e-05
-2.14699e-08
1.42251e-05
-2.12653e-08
1.42301e-05
-2.10178e-08
1.42349e-05
-2.07366e-08
1.42394e-05
-2.0428e-08
-2.00917e-08
1.42436e-05
1.26068e-05
-6.90661e-09
1.26102e-05
-1.33444e-08
1.26149e-05
-1.83817e-08
1.26203e-05
-2.18552e-08
1.26261e-05
-2.4162e-08
1.2632e-05
-2.56804e-08
1.2638e-05
-2.66205e-08
1.26439e-05
-2.71286e-08
1.26497e-05
-2.73247e-08
1.26554e-05
-2.72978e-08
1.26608e-05
-2.711e-08
1.2666e-05
-2.68053e-08
1.26709e-05
-2.64162e-08
1.26756e-05
-2.59668e-08
1.26801e-05
-2.5475e-08
1.26843e-05
-2.49547e-08
1.26883e-05
-2.4416e-08
-2.38622e-08
1.26921e-05
1.12314e-05
-8.52779e-09
1.12349e-05
-1.68296e-08
1.12396e-05
-2.31093e-08
1.12449e-05
-2.712e-08
1.12504e-05
-2.96657e-08
1.1256e-05
-3.12792e-08
1.12616e-05
-3.2192e-08
1.1267e-05
-3.25865e-08
1.12723e-05
-3.26186e-08
1.12774e-05
-3.23971e-08
1.12823e-05
-3.19952e-08
1.1287e-05
-3.14647e-08
1.12914e-05
-3.08439e-08
1.12956e-05
-3.01613e-08
1.12995e-05
-2.94385e-08
1.13033e-05
-2.86922e-08
1.13068e-05
-2.7935e-08
-2.71734e-08
1.13101e-05
1.0006e-05
-9.92172e-09
1.00097e-05
-2.04863e-08
1.00145e-05
-2.79812e-08
1.00197e-05
-3.22805e-08
1.0025e-05
-3.49278e-08
1.00302e-05
-3.65541e-08
1.00354e-05
-3.73704e-08
1.00404e-05
-3.76034e-08
1.00453e-05
-3.74442e-08
1.00499e-05
-3.70149e-08
1.00543e-05
-3.6395e-08
1.00584e-05
-3.56416e-08
1.00624e-05
-3.47968e-08
1.00661e-05
-3.38919e-08
1.00696e-05
-3.29514e-08
1.00729e-05
-3.19957e-08
1.00761e-05
-3.10429e-08
-3.01085e-08
1.0079e-05
8.91406e-06
-1.08823e-08
8.91802e-06
-2.44455e-08
8.92305e-06
-3.301e-08
8.92805e-06
-3.72853e-08
8.93305e-06
-3.99236e-08
8.93797e-06
-4.14798e-08
8.94272e-06
-4.2126e-08
8.94728e-06
-4.21551e-08
8.95162e-06
-4.17869e-08
8.95575e-06
-4.11461e-08
8.95967e-06
-4.03132e-08
8.96337e-06
-3.93473e-08
8.96687e-06
-3.82916e-08
8.97015e-06
-3.71778e-08
8.97323e-06
-3.60303e-08
8.9761e-06
-3.48689e-08
8.97877e-06
-3.37121e-08
-3.25753e-08
8.98124e-06
7.94096e-06
-1.11746e-08
7.94546e-06
-2.89479e-08
7.9505e-06
-3.80492e-08
7.95521e-06
-4.1995e-08
7.95989e-06
-4.46082e-08
7.96445e-06
-4.6032e-08
7.96876e-06
-4.64421e-08
7.97284e-06
-4.62307e-08
7.97669e-06
-4.56366e-08
7.98032e-06
-4.47792e-08
7.98374e-06
-4.37368e-08
7.98696e-06
-4.25681e-08
7.98998e-06
-4.13153e-08
7.99282e-06
-4.00087e-08
7.99546e-06
-3.86709e-08
7.99791e-06
-3.73227e-08
8.00019e-06
-3.59909e-08
-3.47198e-08
8.00233e-06
7.07291e-06
-9.7521e-09
7.07858e-06
-3.46158e-08
7.08337e-06
-4.28412e-08
7.08756e-06
-4.61847e-08
7.09178e-06
-4.88357e-08
7.09585e-06
-5.01002e-08
7.09967e-06
-5.02617e-08
7.10325e-06
-4.98166e-08
7.10662e-06
-4.90028e-08
7.10977e-06
-4.79323e-08
7.11272e-06
-4.66836e-08
7.11547e-06
-4.53163e-08
7.11802e-06
-4.38718e-08
7.12039e-06
-4.23781e-08
7.12257e-06
-4.08526e-08
7.12456e-06
-3.93056e-08
7.12631e-06
-3.77463e-08
-3.61809e-08
7.12777e-06
6.29708e-06
-4.32358e-09
6.30526e-06
-4.27914e-08
6.31008e-06
-4.76667e-08
6.31409e-06
-5.01894e-08
6.31789e-06
-5.2639e-08
6.32124e-06
-5.34513e-08
6.32421e-06
-5.3227e-08
6.32689e-06
-5.25019e-08
6.32934e-06
-5.14562e-08
6.33159e-06
-5.01754e-08
6.33363e-06
-4.87311e-08
6.3355e-06
-4.71797e-08
6.33718e-06
-4.55608e-08
6.33871e-06
-4.38998e-08
6.34006e-06
-4.22097e-08
6.34125e-06
-4.0492e-08
6.34225e-06
-3.87502e-08
-3.69925e-08
6.34306e-06
5.60106e-06
9.51677e-09
5.61058e-06
-5.23083e-08
5.61457e-06
-5.16598e-08
5.61888e-06
-5.44967e-08
5.62271e-06
-5.64741e-08
5.62553e-06
-5.62754e-08
5.62751e-06
-5.52017e-08
5.62882e-06
-5.38166e-08
5.6296e-06
-5.2236e-08
5.62994e-06
-5.05131e-08
5.62991e-06
-4.86998e-08
5.62956e-06
-4.68379e-08
5.62896e-06
-4.49562e-08
5.62813e-06
-4.3072e-08
5.62711e-06
-4.11894e-08
5.62591e-06
-3.92892e-08
5.62447e-06
-3.73138e-08
-3.50034e-08
5.62248e-06
5.00884e-06
2.98228e-09
5.0051e-06
-4.85687e-08
4.99662e-06
-4.31751e-08
4.98992e-06
-4.78036e-08
4.98307e-06
-4.96203e-08
4.97566e-06
-4.88678e-08
4.96766e-06
-4.72001e-08
4.95906e-06
-4.52172e-08
4.94991e-06
-4.30931e-08
4.94032e-06
-4.09176e-08
4.93037e-06
-3.87523e-08
4.92017e-06
-3.66365e-08
4.9098e-06
-3.45928e-08
4.89936e-06
-3.26314e-08
4.88892e-06
-3.07515e-08
4.87857e-06
-2.8932e-08
4.86836e-06
-2.71061e-08
-2.48396e-08
4.85819e-06
4.45953e-06
4.41096e-06
4.36779e-06
4.31998e-06
4.27036e-06
4.22149e-06
4.17429e-06
4.12908e-06
4.08598e-06
4.04507e-06
4.00631e-06
3.96968e-06
3.93508e-06
3.90245e-06
3.8717e-06
3.84277e-06
3.81566e-06
3.79082e-06
2.20217e-08
-2.20218e-08
3.88117e-08
-1.67897e-08
4.54636e-08
-6.65145e-09
4.1623e-08
3.84147e-09
2.83326e-08
1.32918e-08
7.38389e-09
2.09516e-08
-1.93361e-08
2.67232e-08
-4.99062e-08
3.05752e-08
-8.29361e-08
3.30346e-08
-1.17589e-07
3.46575e-08
-1.53361e-07
3.57763e-08
-1.89925e-07
3.65678e-08
-2.27048e-07
3.71266e-08
-2.6455e-07
3.7506e-08
-3.02287e-07
3.77394e-08
-3.40136e-07
3.78511e-08
-3.77995e-07
3.78608e-08
-4.1578e-07
3.77861e-08
-4.53421e-07
3.76425e-08
-4.90865e-07
3.74442e-08
-5.28069e-07
3.72039e-08
-5.65002e-07
3.69331e-08
-6.01645e-07
3.66418e-08
-6.37985e-07
3.63393e-08
-6.74019e-07
3.60333e-08
-7.0975e-07
3.57307e-08
-7.4519e-07
3.54393e-08
-7.80361e-07
3.5171e-08
-8.153e-07
3.49392e-08
-8.50047e-07
3.47473e-08
-8.84637e-07
3.45899e-08
-9.19101e-07
3.44637e-08
-9.53467e-07
3.43664e-08
-9.87764e-07
3.42961e-08
-1.02202e-06
3.42511e-08
-1.05625e-06
3.42298e-08
-1.09048e-06
3.42306e-08
-1.12473e-06
3.42519e-08
-1.15902e-06
3.42919e-08
-1.19337e-06
3.43488e-08
-1.22779e-06
3.44208e-08
-1.2623e-06
3.45059e-08
-1.2969e-06
3.46021e-08
-1.33161e-06
3.47072e-08
-1.36642e-06
3.48189e-08
-1.40136e-06
3.49351e-08
-1.43641e-06
3.50535e-08
-1.47158e-06
3.51718e-08
-1.50687e-06
3.52878e-08
-1.54227e-06
3.53994e-08
-1.57777e-06
3.55044e-08
-1.61337e-06
3.56008e-08
-1.64906e-06
3.56866e-08
-1.68481e-06
3.57596e-08
-1.72063e-06
3.58177e-08
-1.75649e-06
3.58587e-08
-1.79237e-06
3.58806e-08
-1.82825e-06
3.58812e-08
-1.86411e-06
3.58586e-08
-1.89992e-06
3.58107e-08
-1.93565e-06
3.57355e-08
-1.97129e-06
3.5631e-08
-2.00678e-06
3.5495e-08
-2.0421e-06
3.53253e-08
-2.07722e-06
3.51197e-08
-2.1121e-06
3.48758e-08
-2.14669e-06
3.45912e-08
-2.18095e-06
3.42636e-08
-2.21484e-06
3.38904e-08
-2.24831e-06
3.3469e-08
-2.28131e-06
3.29966e-08
-2.31378e-06
3.24705e-08
-2.34567e-06
3.18874e-08
-2.37692e-06
3.12445e-08
-2.40746e-06
3.05385e-08
-2.43722e-06
2.97662e-08
-2.46615e-06
2.89245e-08
-2.49416e-06
2.80102e-08
-2.52118e-06
2.70201e-08
-2.54713e-06
2.5951e-08
-2.57193e-06
2.48e-08
-2.59549e-06
2.35643e-08
-2.61773e-06
2.22413e-08
-2.63856e-06
2.08283e-08
-2.65789e-06
1.93236e-08
-2.67562e-06
1.77256e-08
-2.69165e-06
1.60331e-08
-2.70589e-06
1.42453e-08
-2.71826e-06
1.23613e-08
-2.72864e-06
1.03806e-08
-2.73694e-06
8.30227e-09
-2.74306e-06
6.12474e-09
-2.74691e-06
3.84673e-09
-2.74838e-06
1.46592e-09
-2.74737e-06
-1.01034e-09
-2.74381e-06
-3.55713e-09
-2.73765e-06
-6.1644e-09
-2.72881e-06
-8.83804e-09
-2.71724e-06
-1.15767e-08
-2.70286e-06
-1.43767e-08
-2.68562e-06
-1.72336e-08
-2.66548e-06
-2.01424e-08
-2.64238e-06
-2.30973e-08
-2.61629e-06
-2.60914e-08
-2.58717e-06
-2.91161e-08
-2.55501e-06
-3.21614e-08
-2.51979e-06
-3.52159e-08
-2.48152e-06
-3.8268e-08
-2.44021e-06
-4.13048e-08
-2.3959e-06
-4.43128e-08
-2.34862e-06
-4.72772e-08
-2.29844e-06
-5.01822e-08
-2.24543e-06
-5.30112e-08
-2.18969e-06
-5.57474e-08
-2.13132e-06
-5.83734e-08
-2.07045e-06
-6.0872e-08
-2.00722e-06
-6.32262e-08
-1.9418e-06
-6.5419e-08
-1.87437e-06
-6.74336e-08
-1.80512e-06
-6.92538e-08
-1.73425e-06
-7.08644e-08
-1.662e-06
-7.22521e-08
-1.5886e-06
-7.34058e-08
-1.51429e-06
-7.43153e-08
-1.43932e-06
-7.49716e-08
-1.36396e-06
-7.53668e-08
-1.28846e-06
-7.54957e-08
-1.21311e-06
-7.53585e-08
-1.13815e-06
-7.49589e-08
-1.06385e-06
-7.42982e-08
-9.90476e-07
-7.33768e-08
-9.1827e-07
-7.22035e-08
-8.47472e-07
-7.07946e-08
-7.78309e-07
-6.91597e-08
-7.11002e-07
-6.73024e-08
-6.45753e-07
-6.5244e-08
-5.82741e-07
-6.30069e-08
-5.22142e-07
-6.05961e-08
-4.64116e-07
-5.80236e-08
-4.08792e-07
-5.53243e-08
-3.56282e-07
-5.25116e-08
-3.06703e-07
-4.95817e-08
-2.60134e-07
-4.65758e-08
-2.16629e-07
-4.35153e-08
-1.76252e-07
-4.03837e-08
-1.39023e-07
-3.72308e-08
-1.04948e-07
-3.40791e-08
-7.40637e-08
-3.08962e-08
-4.6319e-08
-2.77516e-08
-2.16514e-08
-2.46651e-08
-5.1972e-11
-2.15938e-08
1.85446e-08
-1.85908e-08
3.42268e-08
-1.56772e-08
4.71211e-08
-1.28869e-08
5.7386e-08
-1.02526e-08
6.51878e-08
-7.79536e-09
7.07254e-08
-5.53582e-09
7.42256e-08
-3.49799e-09
7.59104e-08
-1.68837e-09
7.60275e-08
-1.15362e-10
7.47975e-08
1.21679e-09
7.24591e-08
2.31601e-09
6.93115e-08
3.14945e-09
6.56128e-08
3.69359e-09
6.16563e-08
3.9495e-09
5.77649e-08
3.89535e-09
5.42203e-08
3.53763e-09
5.13595e-08
2.86648e-09
4.94723e-08
1.88569e-09
4.88691e-08
5.97197e-10
4.98266e-08
-9.59513e-10
5.25372e-08
-2.72255e-09
5.72079e-08
-4.67446e-09
6.39174e-08
-6.71534e-09
7.26651e-08
-8.75043e-09
8.30978e-08
-1.04299e-08
9.48551e-08
-1.17529e-08
1.05744e-07
-1.08773e-08
1.16552e-07
-1.08011e-08
5.40047e-09
1.11162e-07
5.02096e-09
-2.70387e-08
-5.80477e-10
-1.11843e-08
-1.2926e-08
5.69708e-09
-2.94689e-08
2.03872e-08
-4.90574e-08
3.28832e-08
-7.13165e-08
4.32144e-08
-9.59821e-08
5.1393e-08
-1.22963e-07
5.75601e-08
-1.52014e-07
6.20893e-08
-1.82743e-07
6.53908e-08
-2.14755e-07
6.77919e-08
-2.47714e-07
6.95301e-08
-2.81354e-07
7.07688e-08
-3.15466e-07
7.16203e-08
-3.49889e-07
7.21642e-08
-3.84498e-07
7.24602e-08
-4.19192e-07
7.25551e-08
-4.53894e-07
7.24877e-08
-4.88543e-07
7.2291e-08
-5.23093e-07
7.19937e-08
-5.5751e-07
7.1621e-08
-5.91773e-07
7.11948e-08
-6.25865e-07
7.07349e-08
-6.59783e-07
7.0258e-08
-6.93527e-07
6.97792e-08
-7.27107e-07
6.93116e-08
-7.60533e-07
6.88677e-08
-7.93819e-07
6.84593e-08
-8.26973e-07
6.80959e-08
-8.60006e-07
6.77819e-08
-8.92932e-07
6.75176e-08
-9.25769e-07
6.73024e-08
-9.58537e-07
6.71351e-08
-9.91255e-07
6.70141e-08
-1.02394e-06
6.69375e-08
-1.05661e-06
6.6903e-08
-1.08929e-06
6.6908e-08
-1.12199e-06
6.69498e-08
-1.15472e-06
6.70251e-08
-1.1875e-06
6.71308e-08
-1.22034e-06
6.72631e-08
-1.25326e-06
6.74183e-08
-1.28624e-06
6.75927e-08
-1.31932e-06
6.7782e-08
-1.35248e-06
6.79823e-08
-1.38573e-06
6.81892e-08
-1.41907e-06
6.83985e-08
-1.45251e-06
6.86059e-08
-1.48603e-06
6.88071e-08
-1.51962e-06
6.89982e-08
-1.55329e-06
6.9175e-08
-1.58702e-06
6.93335e-08
-1.62081e-06
6.94695e-08
-1.65462e-06
6.95791e-08
-1.68846e-06
6.96582e-08
-1.72231e-06
6.97028e-08
-1.75614e-06
6.97088e-08
-1.78993e-06
6.96724e-08
-1.82366e-06
6.95895e-08
-1.8573e-06
6.94563e-08
-1.89084e-06
6.92687e-08
-1.92423e-06
6.90227e-08
-1.95744e-06
6.8714e-08
-1.99046e-06
6.83384e-08
-2.02323e-06
6.78915e-08
-2.05572e-06
6.73688e-08
-2.0879e-06
6.67655e-08
-2.11971e-06
6.60767e-08
-2.15112e-06
6.52975e-08
-2.18207e-06
6.44225e-08
-2.21252e-06
6.34462e-08
-2.24241e-06
6.23628e-08
-2.27169e-06
6.11664e-08
-2.3003e-06
5.98509e-08
-2.32818e-06
5.841e-08
-2.35525e-06
5.68373e-08
-2.38145e-06
5.51265e-08
-2.40671e-06
5.3271e-08
-2.43096e-06
5.12647e-08
-2.45411e-06
4.91012e-08
-2.47608e-06
4.67745e-08
-2.4968e-06
4.4279e-08
-2.51616e-06
4.16093e-08
-2.5341e-06
3.87611e-08
-2.55051e-06
3.57305e-08
-2.5653e-06
3.25146e-08
-2.57837e-06
2.91111e-08
-2.58965e-06
2.55185e-08
-2.59903e-06
2.17358e-08
-2.60641e-06
1.77625e-08
-2.61171e-06
1.35981e-08
-2.61483e-06
9.2404e-09
-2.61567e-06
4.68744e-09
-2.61414e-06
-6.2811e-11
-2.61017e-06
-4.97669e-09
-2.6037e-06
-1.00184e-08
-2.59468e-06
-1.51904e-08
-2.58302e-06
-2.04924e-08
-2.56867e-06
-2.59195e-08
-2.55158e-06
-3.14637e-08
-2.5317e-06
-3.71155e-08
-2.50898e-06
-4.28638e-08
-2.48339e-06
-4.86956e-08
-2.45489e-06
-5.45956e-08
-2.42346e-06
-6.05463e-08
-2.3891e-06
-6.65279e-08
-2.3518e-06
-7.25184e-08
-2.31157e-06
-7.84939e-08
-2.26845e-06
-8.44287e-08
-2.22247e-06
-9.02949e-08
-2.17368e-06
-9.6063e-08
-2.12216e-06
-1.01702e-07
-2.06798e-06
-1.07179e-07
-2.01127e-06
-1.12461e-07
-1.95212e-06
-1.17514e-07
-1.89069e-06
-1.22304e-07
-1.82712e-06
-1.26796e-07
-1.76158e-06
-1.30956e-07
-1.69426e-06
-1.34751e-07
-1.62536e-06
-1.38152e-07
-1.5551e-06
-1.4113e-07
-1.48369e-06
-1.43659e-07
-1.41139e-06
-1.45714e-07
-1.33842e-06
-1.47278e-07
-1.26505e-06
-1.48337e-07
-1.19154e-06
-1.48879e-07
-1.11813e-06
-1.48895e-07
-1.0451e-06
-1.48384e-07
-9.72706e-07
-1.47354e-07
-9.01189e-07
-1.45812e-07
-8.30801e-07
-1.43762e-07
-7.61784e-07
-1.41221e-07
-6.9436e-07
-1.38221e-07
-6.28741e-07
-1.34784e-07
-5.6513e-07
-1.30919e-07
-5.03714e-07
-1.26668e-07
-4.44654e-07
-1.22074e-07
-3.88103e-07
-1.17155e-07
-3.34198e-07
-1.11935e-07
-2.83051e-07
-1.06477e-07
-2.34752e-07
-1.00813e-07
-1.89384e-07
-9.49483e-08
-1.47007e-07
-8.89495e-08
-1.07655e-07
-8.2862e-08
-7.135e-08
-7.66807e-08
-3.81017e-08
-7.04697e-08
-7.89373e-09
-6.42782e-08
1.93218e-08
-5.81043e-08
4.35609e-08
-5.19836e-08
6.48753e-08
-4.59761e-08
8.34046e-08
-4.01274e-08
9.92847e-08
-3.44775e-08
1.12657e-07
-2.90564e-08
1.23668e-07
-2.39102e-08
1.32489e-07
-1.90813e-08
1.39299e-07
-1.46097e-08
1.44291e-07
-1.05329e-08
1.47675e-07
-6.87753e-09
1.49664e-07
-3.67575e-09
1.50494e-07
-9.43688e-10
1.50414e-07
1.31478e-09
1.49665e-07
3.07693e-09
1.48513e-07
4.30924e-09
1.47226e-07
4.98538e-09
1.46078e-07
5.09396e-09
1.45359e-07
4.61882e-09
1.45342e-07
3.54875e-09
1.46317e-07
1.8858e-09
1.48551e-07
-3.54055e-10
1.52284e-07
-3.13406e-09
1.57749e-07
-6.41543e-09
1.65165e-07
-1.01391e-08
1.7471e-07
-1.42133e-08
1.86483e-07
-1.84883e-08
2.00472e-07
-2.27396e-08
2.16556e-07
-2.65206e-08
2.34221e-07
-2.94273e-08
2.53238e-07
-2.99055e-08
2.71382e-07
-2.89591e-08
-1.5227e-08
2.92002e-07
-1.21786e-08
-1.48593e-08
-3.08633e-08
7.50149e-09
-5.11333e-08
2.59674e-08
-7.20857e-08
4.13399e-08
-9.37112e-08
5.45099e-08
-1.16189e-07
6.56932e-08
-1.39756e-07
7.49606e-08
-1.64617e-07
8.24225e-08
-1.90813e-07
8.82871e-08
-2.18234e-07
9.28126e-08
-2.46692e-07
9.62512e-08
-2.75982e-07
9.88219e-08
-3.05914e-07
1.00702e-07
-3.36324e-07
1.02031e-07
-3.67077e-07
1.02918e-07
-3.98065e-07
1.03449e-07
-4.29202e-07
1.03693e-07
-4.60421e-07
1.03707e-07
-4.91668e-07
1.03539e-07
-5.22904e-07
1.0323e-07
-5.54099e-07
1.02815e-07
-5.85231e-07
1.02326e-07
-6.16286e-07
1.0179e-07
-6.47256e-07
1.01228e-07
-6.78138e-07
1.00661e-07
-7.08933e-07
1.00107e-07
-7.39646e-07
9.95802e-08
-7.70279e-07
9.90929e-08
-8.00838e-07
9.86548e-08
-8.31328e-07
9.82721e-08
-8.61759e-07
9.79483e-08
-8.92141e-07
9.76849e-08
-9.22488e-07
9.74821e-08
-9.52814e-07
9.73394e-08
-9.83132e-07
9.72548e-08
-1.01346e-06
9.72261e-08
-1.0438e-06
9.72502e-08
-1.07417e-06
9.73235e-08
-1.10459e-06
9.74417e-08
-1.13506e-06
9.76005e-08
-1.16559e-06
9.77949e-08
-1.19619e-06
9.80197e-08
-1.22686e-06
9.82694e-08
-1.25762e-06
9.85384e-08
-1.28846e-06
9.88208e-08
-1.31938e-06
9.91106e-08
-1.35038e-06
9.94018e-08
-1.38146e-06
9.96884e-08
-1.41262e-06
9.99644e-08
-1.44385e-06
1.00224e-07
-1.47513e-06
1.00461e-07
-1.50647e-06
1.0067e-07
-1.53784e-06
1.00844e-07
-1.56924e-06
1.00979e-07
-1.60065e-06
1.01068e-07
-1.63205e-06
1.01105e-07
-1.66343e-06
1.01085e-07
-1.69476e-06
1.01003e-07
-1.72602e-06
1.00851e-07
-1.75719e-06
1.00626e-07
-1.78824e-06
1.0032e-07
-1.81914e-06
9.99284e-08
-1.84988e-06
9.94447e-08
-1.8804e-06
9.88627e-08
-1.91068e-06
9.81759e-08
-1.94069e-06
9.73777e-08
-1.97039e-06
9.64611e-08
-1.99973e-06
9.54189e-08
-2.02868e-06
9.42436e-08
-2.05718e-06
9.29274e-08
-2.0852e-06
9.1462e-08
-2.11267e-06
8.98387e-08
-2.13956e-06
8.80486e-08
-2.16579e-06
8.60826e-08
-2.19131e-06
8.39311e-08
-2.21606e-06
8.15846e-08
-2.23996e-06
7.90334e-08
-2.26296e-06
7.62676e-08
-2.28498e-06
7.32778e-08
-2.30593e-06
7.00545e-08
-2.32574e-06
6.65886e-08
-2.34434e-06
6.28718e-08
-2.36162e-06
5.88961e-08
-2.37752e-06
5.4655e-08
-2.39193e-06
5.01425e-08
-2.40477e-06
4.53542e-08
-2.41595e-06
4.02867e-08
-2.42536e-06
3.49375e-08
-2.43293e-06
2.93056e-08
-2.43856e-06
2.33908e-08
-2.44216e-06
1.71931e-08
-2.44363e-06
1.07106e-08
-2.44288e-06
3.94258e-09
-2.43985e-06
-3.09344e-09
-2.43447e-06
-1.03556e-08
-2.42668e-06
-1.78162e-08
-2.4164e-06
-2.54709e-08
-2.40358e-06
-3.33148e-08
-2.38816e-06
-4.13392e-08
-2.37009e-06
-4.95323e-08
-2.34932e-06
-5.78796e-08
-2.32582e-06
-6.63638e-08
-2.29955e-06
-7.49649e-08
-2.27049e-06
-8.36596e-08
-2.23861e-06
-9.24214e-08
-2.20392e-06
-1.01221e-07
-2.16641e-06
-1.10024e-07
-2.12611e-06
-1.18796e-07
-2.08304e-06
-1.27496e-07
-2.03725e-06
-1.36083e-07
-1.9888e-06
-1.44512e-07
-1.93777e-06
-1.52737e-07
-1.88424e-06
-1.60708e-07
-1.82832e-06
-1.68378e-07
-1.77014e-06
-1.75695e-07
-1.70984e-06
-1.82608e-07
-1.64757e-06
-1.89067e-07
-1.58351e-06
-1.9502e-07
-1.51784e-06
-2.00421e-07
-1.45076e-06
-2.05227e-07
-1.3825e-06
-2.09396e-07
-1.31327e-06
-2.1289e-07
-1.24331e-06
-2.15674e-07
-1.17286e-06
-2.17723e-07
-1.10218e-06
-2.19021e-07
-1.03151e-06
-2.19552e-07
-9.611e-07
-2.19302e-07
-8.91214e-07
-2.18271e-07
-8.22094e-07
-2.16475e-07
-7.53978e-07
-2.13928e-07
-6.87104e-07
-2.10637e-07
-6.21697e-07
-2.06628e-07
-5.57968e-07
-2.0195e-07
-4.96111e-07
-1.9664e-07
-4.36314e-07
-1.90716e-07
-3.78747e-07
-1.84235e-07
-3.23553e-07
-1.77267e-07
-2.70865e-07
-1.69842e-07
-2.20803e-07
-1.61997e-07
-1.73459e-07
-1.53821e-07
-1.28904e-07
-1.45367e-07
-8.72001e-08
-1.36653e-07
-4.83895e-08
-1.2776e-07
-1.24866e-08
-1.18765e-07
2.05168e-08
-1.09685e-07
5.06093e-08
-1.00564e-07
7.78133e-08
-9.14832e-08
1.0222e-07
-8.25115e-08
1.23926e-07
-7.36891e-08
1.43027e-07
-6.50763e-08
1.59639e-07
-5.67392e-08
1.73897e-07
-4.87348e-08
1.85952e-07
-4.11101e-08
1.95962e-07
-3.39196e-08
2.04098e-07
-2.72168e-08
2.10541e-07
-2.10525e-08
2.15482e-07
-1.54741e-08
2.19126e-07
-1.05211e-08
2.21683e-07
-6.23464e-09
2.23378e-07
-2.6426e-09
2.24456e-07
2.37084e-10
2.25156e-07
2.37581e-09
2.25725e-07
3.73861e-09
2.26418e-07
4.29311e-09
2.27491e-07
4.01911e-09
2.29209e-07
2.90226e-09
2.31828e-07
9.3023e-10
2.35593e-07
-1.87907e-09
2.40733e-07
-5.49411e-09
2.47484e-07
-9.88613e-09
2.56069e-07
-1.50013e-08
2.6668e-07
-2.07521e-08
2.79473e-07
-2.70078e-08
2.94548e-07
-3.3563e-08
3.1192e-07
-4.01124e-08
3.31537e-07
-4.61365e-08
3.53171e-07
-5.10614e-08
3.76806e-07
-5.35394e-08
4.01957e-07
-5.411e-08
-4.53523e-08
4.32084e-07
-2.24523e-08
7.59419e-09
-4.70065e-08
3.20565e-08
-7.0995e-08
4.99567e-08
-9.44395e-08
6.47847e-08
-1.17544e-07
7.76146e-08
-1.4058e-07
8.87296e-08
-1.63837e-07
9.8218e-08
-1.87564e-07
1.06151e-07
-2.11919e-07
1.12642e-07
-2.36952e-07
1.17847e-07
-2.62641e-07
1.2194e-07
-2.88913e-07
1.25094e-07
-3.15677e-07
1.27467e-07
-3.42841e-07
1.29195e-07
-3.70316e-07
1.30394e-07
-3.98029e-07
1.31162e-07
-4.25915e-07
1.31579e-07
-4.53921e-07
1.31713e-07
-4.82006e-07
1.31624e-07
-5.10137e-07
1.3136e-07
-5.38287e-07
1.30965e-07
-5.66436e-07
1.30476e-07
-5.94571e-07
1.29925e-07
-6.22681e-07
1.29338e-07
-6.50761e-07
1.28741e-07
-6.78808e-07
1.28154e-07
-7.0682e-07
1.27593e-07
-7.34798e-07
1.27072e-07
-7.62745e-07
1.26602e-07
-7.90664e-07
1.26191e-07
-8.18561e-07
1.25846e-07
-8.46444e-07
1.25568e-07
-8.74321e-07
1.25359e-07
-9.02202e-07
1.2522e-07
-9.30097e-07
1.2515e-07
-9.58016e-07
1.25145e-07
-9.85969e-07
1.25203e-07
-1.01396e-06
1.25319e-07
-1.04201e-06
1.2549e-07
-1.07012e-06
1.25708e-07
-1.09829e-06
1.25968e-07
-1.12654e-06
1.26265e-07
-1.15486e-06
1.2659e-07
-1.18325e-06
1.26938e-07
-1.21173e-06
1.27299e-07
-1.24029e-06
1.27669e-07
-1.26893e-06
1.28037e-07
-1.29763e-06
1.28398e-07
-1.32641e-06
1.28743e-07
-1.35525e-06
1.29064e-07
-1.38415e-06
1.29355e-07
-1.41308e-06
1.29607e-07
-1.44205e-06
1.29814e-07
-1.47104e-06
1.29968e-07
-1.50003e-06
1.30061e-07
-1.52902e-06
1.30087e-07
-1.55797e-06
1.30037e-07
-1.58687e-06
1.29905e-07
-1.6157e-06
1.29684e-07
-1.64444e-06
1.29366e-07
-1.67307e-06
1.28943e-07
-1.70155e-06
1.28409e-07
-1.72986e-06
1.27755e-07
-1.75797e-06
1.26974e-07
-1.78585e-06
1.26056e-07
-1.81347e-06
1.24994e-07
-1.84078e-06
1.23778e-07
-1.86776e-06
1.22398e-07
-1.89436e-06
1.20846e-07
-1.92055e-06
1.1911e-07
-1.94626e-06
1.1718e-07
-1.97147e-06
1.15044e-07
-1.99611e-06
1.1269e-07
-2.02013e-06
1.10106e-07
-2.04348e-06
1.0728e-07
-2.0661e-06
1.04198e-07
-2.08791e-06
1.00847e-07
-2.10886e-06
9.72141e-08
-2.12887e-06
9.32864e-08
-2.14786e-06
8.90509e-08
-2.16577e-06
8.44955e-08
-2.18251e-06
7.96087e-08
-2.19799e-06
7.43801e-08
-2.21214e-06
6.88003e-08
-2.22486e-06
6.28617e-08
-2.23606e-06
5.6558e-08
-2.24566e-06
4.98846e-08
-2.25356e-06
4.28385e-08
-2.25967e-06
3.54186e-08
-2.26391e-06
2.76256e-08
-2.26618e-06
1.94604e-08
-2.26639e-06
1.09238e-08
-2.26446e-06
2.01391e-09
-2.26032e-06
-7.23068e-09
-2.25392e-06
-1.67577e-08
-2.24519e-06
-2.65511e-08
-2.23406e-06
-3.66007e-08
-2.22048e-06
-4.68971e-08
-2.20439e-06
-5.74276e-08
-2.18575e-06
-6.81761e-08
-2.1645e-06
-7.91228e-08
-2.14062e-06
-9.02445e-08
-2.11407e-06
-1.01514e-07
-2.08483e-06
-1.129e-07
-2.05289e-06
-1.24367e-07
-2.01823e-06
-1.35876e-07
-1.98087e-06
-1.47381e-07
-1.94083e-06
-1.58836e-07
-1.89814e-06
-1.70187e-07
-1.85285e-06
-1.81376e-07