/*--------------------------------*- C++ -*----------------------------------*\
| =========                 |                                                 |
| \\      /  F ield         | OpenFOAM: The Open Source CFD Toolbox           |
|  \\    /   O peration     | Version:  2.2.x                                 |
|   \\  /    A nd           | Web:      www.OpenFOAM.org                      |
|    \\/     M anipulation  |                                                 |
\*---------------------------------------------------------------------------*/
FoamFile
{
    version     2.0;
    format      ascii;
    class       volVectorField;
    location    "500";
    object      U;
}
// * * * * * * * * * * * * * * * * * * * * * * * * * * * * * * * * * * * * * //

dimensions      [0 1 -1 0 0 0 0];

internalField   nonuniform List<vector> 
12225
(
(9.83972 -1.23842 0)
(9.73873 -0.731491 0)
(9.537 -0.467337 0)
(9.32322 -0.307412 0)
(9.12445 -0.205965 0)
(8.9409 -0.139605 0)
(8.77085 -0.0949628 0)
(8.61352 -0.0642754 0)
(8.46817 -0.0428415 0)
(8.33386 -0.0276851 0)
(8.20965 -0.0168647 0)
(8.0947 -0.00908625 0)
(7.98826 -0.00347004 0)
(7.88963 0.000596803 0)
(7.7981 0.00357249 0)
(7.71283 0.00598646 0)
(7.62795 0.00940414 0)
(7.56352 -0.019575 0)
(10.0335 0.447387 0)
(10.0226 0.426926 0)
(9.98836 0.340226 0)
(9.94298 0.270966 0)
(9.89665 0.217787 0)
(9.84865 0.177194 0)
(9.79826 0.146635 0)
(9.74619 0.123641 0)
(9.69332 0.106187 0)
(9.64032 0.0927835 0)
(9.5877 0.0823576 0)
(9.53587 0.0741365 0)
(9.48516 0.0675618 0)
(9.43583 0.0622391 0)
(9.38805 0.0579351 0)
(9.34203 0.0547744 0)
(9.29929 0.0539363 0)
(9.26545 0.0677587 0)
(9.9929 0.0267735 0)
(10.0022 -0.00878145 0)
(10.0179 -0.0275998 0)
(10.0247 -0.0224726 0)
(10.0279 -0.0111188 0)
(10.0282 0.000188624 0)
(10.0256 0.0102572 0)
(10.0206 0.0187796 0)
(10.0138 0.0257221 0)
(10.0057 0.0312278 0)
(9.99668 0.035507 0)
(9.98695 0.0387691 0)
(9.97674 0.0412013 0)
(9.96626 0.0429737 0)
(9.9557 0.0442723 0)
(9.94546 0.045376 0)
(9.93667 0.0464152 0)
(9.92968 0.0442192 0)
(9.99998 0.0196687 0)
(10.0123 0.0433381 0)
(10.0308 0.0556495 0)
(10.0412 0.0652446 0)
(10.0484 0.0706009 0)
(10.0544 0.0723211 0)
(10.0593 0.0720832 0)
(10.063 0.0709178 0)
(10.0661 0.0693148 0)
(10.0686 0.0675286 0)
(10.0707 0.065699 0)
(10.0724 0.0638944 0)
(10.0739 0.0621418 0)
(10.0752 0.0604502 0)
(10.0766 0.0588278 0)
(10.0782 0.0572647 0)
(10.0807 0.055474 0)
(10.0843 0.0517833 0)
(10.0023 0.0186632 0)
(10.0144 0.0407786 0)
(10.0302 0.0467739 0)
(10.0404 0.0491392 0)
(10.0485 0.050525 0)
(10.0561 0.0510344 0)
(10.063 0.0511826 0)
(10.0692 0.0512657 0)
(10.0749 0.0513239 0)
(10.0801 0.0513294 0)
(10.0851 0.0512551 0)
(10.0898 0.0510784 0)
(10.0943 0.0507793 0)
(10.0987 0.0503375 0)
(10.1031 0.0497225 0)
(10.1077 0.0488433 0)
(10.1128 0.0473727 0)
(10.118 0.0443208 0)
(10.0025 0.0189035 0)
(10.0131 0.036959 0)
(10.027 0.0431569 0)
(10.0373 0.0464517 0)
(10.0459 0.0491408 0)
(10.054 0.0509172 0)
(10.0615 0.0519725 0)
(10.0683 0.0525794 0)
(10.0747 0.0528611 0)
(10.0807 0.0528734 0)
(10.0864 0.0526557 0)
(10.0919 0.0522343 0)
(10.0973 0.0516207 0)
(10.1026 0.050808 0)
(10.1079 0.0497599 0)
(10.1133 0.0483724 0)
(10.1187 0.0463963 0)
(10.1242 0.0433718 0)
(10.0022 0.0166013 0)
(10.0111 0.0316815 0)
(10.0232 0.0386335 0)
(10.0334 0.0425792 0)
(10.0421 0.0454867 0)
(10.0503 0.0473461 0)
(10.0579 0.0483911 0)
(10.0649 0.0489285 0)
(10.0715 0.0491248 0)
(10.0778 0.0490577 0)
(10.0839 0.0487711 0)
(10.0897 0.0482881 0)
(10.0954 0.0476119 0)
(10.101 0.0467249 0)
(10.1065 0.0455799 0)
(10.112 0.0440797 0)
(10.1174 0.0420545 0)
(10.1226 0.0392987 0)
(10.0019 0.0146454 0)
(10.0095 0.0280207 0)
(10.0203 0.0352726 0)
(10.0299 0.0394845 0)
(10.0385 0.0424434 0)
(10.0465 0.0443722 0)
(10.0541 0.0455056 0)
(10.0612 0.046118 0)
(10.0679 0.0463688 0)
(10.0743 0.0463359 0)
(10.0805 0.0460622 0)
(10.0864 0.0455698 0)
(10.0922 0.0448615 0)
(10.0978 0.0439203 0)
(10.1034 0.0427048 0)
(10.1088 0.0411412 0)
(10.114 0.039125 0)
(10.119 0.0365847 0)
(10.0017 0.0130571 0)
(10.0083 0.0250533 0)
(10.0178 0.0321995 0)
(10.0269 0.0365053 0)
(10.0352 0.0394902 0)
(10.043 0.0414676 0)
(10.0505 0.0426631 0)
(10.0576 0.0433217 0)
(10.0643 0.0435966 0)
(10.0707 0.0435685 0)
(10.0769 0.0432831 0)
(10.0829 0.0427645 0)
(10.0887 0.0420176 0)
(10.0943 0.0410293 0)
(10.0998 0.0397671 0)
(10.1051 0.038179 0)
(10.1101 0.0362034 0)
(10.115 0.0338376 0)
(10.0015 0.0114982 0)
(10.0071 0.0220914 0)
(10.0154 0.0289177 0)
(10.0238 0.0332175 0)
(10.0317 0.0361911 0)
(10.0393 0.0381873 0)
(10.0466 0.0394216 0)
(10.0535 0.0401109 0)
(10.0602 0.0404005 0)
(10.0666 0.0403727 0)
(10.0727 0.0400751 0)
(10.0787 0.039534 0)
(10.0844 0.0387576 0)
(10.09 0.0377384 0)
(10.0953 0.0364556 0)
(10.1005 0.034879 0)
(10.1053 0.0329815 0)
(10.11 0.0307998 0)
(10.0013 0.00994489 0)
(10.006 0.0191332 0)
(10.0132 0.0254767 0)
(10.0208 0.0296515 0)
(10.0282 0.0325446 0)
(10.0354 0.0345056 0)
(10.0424 0.0357384 0)
(10.0492 0.0364308 0)
(10.0557 0.0367172 0)
(10.0619 0.0366787 0)
(10.068 0.0363638 0)
(10.0738 0.0358008 0)
(10.0795 0.0350017 0)
(10.0849 0.0339667 0)
(10.0901 0.0326871 0)
(10.0951 0.0311524 0)
(10.0997 0.0293606 0)
(10.1042 0.0273655 0)
(10.0011 0.00840981 0)
(10.005 0.0162168 0)
(10.0112 0.0219242 0)
(10.018 0.0258382 0)
(10.0248 0.0285684 0)
(10.0316 0.0304319 0)
(10.0383 0.0316151 0)
(10.0447 0.0322775 0)
(10.051 0.0325385 0)
(10.0571 0.0324755 0)
(10.063 0.032137 0)
(10.0686 0.0315529 0)
(10.0741 0.0307401 0)
(10.0793 0.0297061 0)
(10.0844 0.028454 0)
(10.0891 0.0269883 0)
(10.0936 0.0253227 0)
(10.0978 0.023515 0)
(10.0009 0.00690837 0)
(10.0042 0.0133614 0)
(10.0094 0.0182956 0)
(10.0154 0.0218065 0)
(10.0217 0.0242798 0)
(10.028 0.0259739 0)
(10.0342 0.0270511 0)
(10.0404 0.0276429 0)
(10.0464 0.0278514 0)
(10.0522 0.0277474 0)
(10.0579 0.0273778 0)
(10.0633 0.026774 0)
(10.0686 0.0259567 0)
(10.0736 0.0249403 0)
(10.0784 0.0237366 0)
(10.0829 0.02236 0)
(10.0871 0.0208323 0)
(10.0912 0.0192073 0)
(10.0008 0.00544702 0)
(10.0035 0.0105683 0)
(10.0079 0.0146165 0)
(10.0132 0.0175853 0)
(10.0189 0.0196965 0)
(10.0247 0.0211397 0)
(10.0305 0.0220458 0)
(10.0363 0.0225193 0)
(10.042 0.0226435 0)
(10.0476 0.0224797 0)
(10.0529 0.0220713 0)
(10.0581 0.0214494 0)
(10.0631 0.0206372 0)
(10.0679 0.0196534 0)
(10.0724 0.0185153 0)
(10.0767 0.0172421 0)
(10.0807 0.0158576 0)
(10.0846 0.0144089 0)
(10.0006 0.00402146 0)
(10.003 0.00782287 0)
(10.0067 0.0108942 0)
(10.0114 0.0131917 0)
(10.0165 0.0148297 0)
(10.0218 0.0159319 0)
(10.0272 0.0165947 0)
(10.0327 0.0168955 0)
(10.038 0.0168981 0)
(10.0433 0.0166519 0)
(10.0484 0.0161942 0)
(10.0533 0.0155536 0)
(10.058 0.0147531 0)
(10.0625 0.0138127 0)
(10.0668 0.0127514 0)
(10.0709 0.0115887 0)
(10.0747 0.010347 0)
(10.0784 0.00906551 0)
(10.0006 0.00261442 0)
(10.0025 0.00508984 0)
(10.0058 0.00710493 0)
(10.0099 0.00861354 0)
(10.0145 0.00966615 0)
(10.0194 0.010333 0)
(10.0245 0.0106751 0)
(10.0295 0.0107438 0)
(10.0346 0.0105828 0)
(10.0395 0.0102274 0)
(10.0444 0.00970611 0)
(10.049 0.00904225 0)
(10.0535 0.00825562 0)
(10.0578 0.00736415 0)
(10.0618 0.006385 0)
(10.0657 0.00533536 0)
(10.0693 0.00423373 0)
(10.0728 0.00311137 0)
(10.0005 0.00119386 0)
(10.0022 0.00230988 0)
(10.0052 0.00318908 0)
(10.0089 0.0038001 0)
(10.0131 0.00415929 0)
(10.0177 0.00429637 0)
(10.0224 0.0042399 0)
(10.0272 0.00401549 0)
(10.0319 0.00364591 0)
(10.0366 0.00315075 0)
(10.0412 0.0025469 0)
(10.0456 0.0018492 0)
(10.0499 0.00107112 0)
(10.054 0.000225419 0)
(10.0578 -0.000675456 0)
(10.0615 -0.00161908 0)
(10.065 -0.00259224 0)
(10.0684 -0.00357102 0)
(10.0005 -0.000203989 0)
(10.0021 -0.000437871 0)
(10.0049 -0.000714671 0)
(10.0084 -0.00104259 0)
(10.0124 -0.00142352 0)
(10.0168 -0.00185954 0)
(10.0213 -0.00235168 0)
(10.0259 -0.00289896 0)
(10.0305 -0.00349899 0)
(10.035 -0.00414851 0)
(10.0394 -0.00484372 0)
(10.0437 -0.00558018 0)
(10.0478 -0.00635276 0)
(10.0517 -0.00715575 0)
(10.0554 -0.0079829 0)
(10.059 -0.00882749 0)
(10.0624 -0.00968178 0)
(10.0656 -0.0105289 0)
(10.0005 -0.00149509 0)
(10.0021 -0.00298449 0)
(10.0049 -0.00434362 0)
(10.0085 -0.00554912 0)
(10.0125 -0.00661766 0)
(10.0168 -0.00758333 0)
(10.0213 -0.00847591 0)
(10.0259 -0.00931752 0)
(10.0304 -0.0101253 0)
(10.0349 -0.0109124 0)
(10.0392 -0.0116882 0)
(10.0434 -0.0124586 0)
(10.0474 -0.0132271 0)
(10.0513 -0.0139952 0)
(10.0549 -0.0147625 0)
(10.0584 -0.015528 0)
(10.0617 -0.0162885 0)
(10.0649 -0.0170331 0)
(10.0005 -0.00268009 0)
(10.0022 -0.0053361 0)
(10.0052 -0.00769114 0)
(10.0089 -0.0096763 0)
(10.0131 -0.0113359 0)
(10.0176 -0.012747 0)
(10.0222 -0.0139693 0)
(10.0268 -0.0150462 0)
(10.0314 -0.0160137 0)
(10.0359 -0.0169003 0)
(10.0402 -0.0177272 0)
(10.0444 -0.0185097 0)
(10.0484 -0.0192588 0)
(10.0522 -0.0199821 0)
(10.0558 -0.020685 0)
(10.0593 -0.0213707 0)
(10.0625 -0.02204 0)
(10.0657 -0.022686 0)
(10.0005 -0.00380327 0)
(10.0024 -0.00760753 0)
(10.0057 -0.0109153 0)
(10.0098 -0.0135907 0)
(10.0143 -0.0157473 0)
(10.019 -0.0175258 0)
(10.0237 -0.0190136 0)
(10.0285 -0.0202741 0)
(10.0332 -0.0213622 0)
(10.0377 -0.0223213 0)
(10.0421 -0.023183 0)
(10.0463 -0.0239702 0)
(10.0503 -0.0247002 0)
(10.0542 -0.0253858 0)
(10.0578 -0.0260368 0)
(10.0612 -0.0266607 0)
(10.0645 -0.0272626 0)
(10.0676 -0.0278409 0)
(10.0005 -0.0048676 0)
(10.0026 -0.00987559 0)
(10.0063 -0.014119 0)
(10.0109 -0.0173761 0)
(10.0158 -0.0199179 0)
(10.0208 -0.0219708 0)
(10.0258 -0.0236422 0)
(10.0307 -0.025014 0)
(10.0355 -0.0261605 0)
(10.0401 -0.027138 0)
(10.0446 -0.0279868 0)
(10.0488 -0.0287366 0)
(10.0529 -0.0294098 0)
(10.0567 -0.030024 0)
(10.0604 -0.0305931 0)
(10.0638 -0.0311282 0)
(10.067 -0.0316372 0)
(10.0701 -0.0321209 0)
(10.0005 -0.00583998 0)
(10.0027 -0.0122173 0)
(10.0071 -0.0174026 0)
(10.0123 -0.0211431 0)
(10.0176 -0.0240038 0)
(10.0229 -0.0262864 0)
(10.0282 -0.0281054 0)
(10.0333 -0.0295698 0)
(10.0382 -0.0307762 0)
(10.0429 -0.0317893 0)
(10.0474 -0.0326521 0)
(10.0517 -0.0333963 0)
(10.0558 -0.0340465 0)
(10.0596 -0.0346222 0)
(10.0633 -0.0351397 0)
(10.0667 -0.0356143 0)
(10.0699 -0.0360606 0)
(10.073 -0.0364911 0)
(10.0002 -0.00664532 0)
(10.0027 -0.0146816 0)
(10.0079 -0.0206034 0)
(10.0138 -0.0245513 0)
(10.0196 -0.0275844 0)
(10.0251 -0.0299647 0)
(10.0306 -0.0317733 0)
(10.0358 -0.0331643 0)
(10.0408 -0.0342709 0)
(10.0455 -0.035174 0)
(10.0501 -0.0359242 0)
(10.0543 -0.0365577 0)
(10.0584 -0.0371008 0)
(10.0622 -0.0375733 0)
(10.0658 -0.037991 0)
(10.0691 -0.0383683 0)
(10.0722 -0.0387195 0)
(10.0752 -0.0390556 0)
(9.99982 -0.00723729 0)
(10.0024 -0.0181587 0)
(10.0087 -0.0247254 0)
(10.0153 -0.0286603 0)
(10.0213 -0.0319491 0)
(10.0271 -0.0346688 0)
(10.0327 -0.0367742 0)
(10.038 -0.0384054 0)
(10.043 -0.039688 0)
(10.0477 -0.0406972 0)
(10.0521 -0.0414881 0)
(10.0563 -0.0421055 0)
(10.0602 -0.0425853 0)
(10.0639 -0.042955 0)
(10.0674 -0.0432371 0)
(10.0706 -0.0434534 0)
(10.0735 -0.0436323 0)
(10.0764 -0.0438177 0)
(9.99841 -0.00502615 0)
(10.0007 -0.0203033 0)
(10.0088 -0.027127 0)
(10.0159 -0.029842 0)
(10.0218 -0.0317966 0)
(10.0275 -0.0333079 0)
(10.0331 -0.0345149 0)
(10.0384 -0.0355994 0)
(10.0433 -0.0366213 0)
(10.0479 -0.0375763 0)
(10.0522 -0.0384548 0)
(10.0562 -0.0392523 0)
(10.06 -0.0399663 0)
(10.0635 -0.0405952 0)
(10.0667 -0.0411383 0)
(10.0696 -0.0415973 0)
(10.0723 -0.0419831 0)
(10.0746 -0.0423217 0)
(9.99479 -0.00319182 0)
(9.99582 -0.0256894 0)
(10.0072 -0.0394819 0)
(10.0157 -0.0487538 0)
(10.0217 -0.0546678 0)
(10.0271 -0.057651 0)
(10.0321 -0.0588054 0)
(10.0366 -0.0589828 0)
(10.0407 -0.0586284 0)
(10.0444 -0.0579805 0)
(10.0478 -0.0571846 0)
(10.0509 -0.0563302 0)
(10.0537 -0.0554676 0)
(10.0563 -0.0546203 0)
(10.0585 -0.0537935 0)
(10.0606 -0.0529789 0)
(10.0623 -0.0521701 0)
(10.0638 -0.0513756 0)
(9.98519 0.00576381 0)
(9.98186 0.0248599 0)
(9.99409 0.0364999 0)
(10.0036 0.0321233 0)
(10.0108 0.0222853 0)
(10.0167 0.0122588 0)
(10.021 0.00309531 0)
(10.0239 -0.00501034 0)
(10.0257 -0.0119887 0)
(10.0267 -0.0178816 0)
(10.0269 -0.0228019 0)
(10.0266 -0.0268814 0)
(10.0257 -0.030244 0)
(10.0244 -0.0329957 0)
(10.0228 -0.0352188 0)
(10.0208 -0.0369637 0)
(10.0184 -0.0382458 0)
(10.0154 -0.0389599 0)
(10.0137 -0.317344 0)
(10.0102 -0.32633 0)
(9.99893 -0.27153 0)
(9.9828 -0.224899 0)
(9.96829 -0.188179 0)
(9.95429 -0.158857 0)
(9.93915 -0.13579 0)
(9.92259 -0.117782 0)
(9.90482 -0.103665 0)
(9.88605 -0.0925044 0)
(9.86648 -0.0836061 0)
(9.8463 -0.0764493 0)
(9.82571 -0.0706396 0)
(9.80487 -0.065874 0)
(9.78396 -0.061912 0)
(9.76313 -0.0585417 0)
(9.74258 -0.055534 0)
(9.72165 -0.0522732 0)
(9.95412 0.913091 0)
(9.95406 0.561001 0)
(9.86624 0.375414 0)
(9.75286 0.258523 0)
(9.63878 0.180485 0)
(9.52765 0.126929 0)
(9.41975 0.089161 0)
(9.31587 0.0619528 0)
(9.21664 0.0420638 0)
(9.1223 0.0273732 0)
(9.03289 0.0164371 0)
(8.94829 0.00824896 0)
(8.86837 0.00209548 0)
(8.79295 -0.00253588 0)
(8.72184 -0.00601501 0)
(8.65486 -0.00860219 0)
(8.59208 -0.0104423 0)
(8.53155 -0.0113798 0)
(0.0116554 -0.0301328 0)
(0.0282629 -0.0284858 0)
(0.0388733 -0.0170775 0)
(0.0408215 -0.00290524 0)
(0.0329731 0.011243 0)
(0.0178764 0.0233679 0)
(-0.00415265 0.0325227 -3.42934e-19)
(-0.030121 0.0374547 3.00981e-19)
(-0.0584103 0.0396397 0)
(-0.0885531 0.040573 2.25986e-19)
(-0.1199 0.0409385 0)
(-0.152096 0.0410149 0)
(-0.184909 0.0409143 0)
(-0.218162 0.0406838 -1.47941e-19)
(-0.251717 0.0403477 0)
(-0.285455 0.0399229 0)
(-0.319278 0.0394247 1.17464e-19)
(-0.353106 0.0388675 0)
(-0.38687 0.0382648 0)
(-0.420516 0.0376289 0)
(-0.454001 0.0369707 -9.28045e-20)
(-0.487294 0.0363 0)
(-0.520371 0.035625 -8.43086e-20)
(-0.553216 0.0349527 0)
(-0.585822 0.0342893 0)
(-0.618198 0.0336421 -7.44612e-20)
(-0.650358 0.0330231 0)
(-0.682297 0.0324473 6.9256e-20)
(-0.714028 0.0319282 0)
(-0.745617 0.0314663 -6.48178e-20)
(-0.77709 0.0310498 0)
(-0.808475 0.0306725 0)
(-0.839801 0.0303301 0)
(-0.871091 0.0300193 0)
(-0.90237 0.0297374 0)
(-0.933661 0.0294819 5.46991e-20)
(-0.964984 0.0292504 0)
(-0.996359 0.0290407 -1.04125e-19)
(-1.0278 0.0288506 0)
(-1.05934 0.028678 9.93737e-20)
(-1.09097 0.0285206 0)
(-1.12272 0.0283766 0)
(-1.15459 0.0282439 -9.30487e-20)
(-1.1866 0.0281204 0)
(-1.21876 0.0280043 -8.92749e-20)
(-1.25106 0.0278934 8.75024e-20)
(-1.28352 0.0277858 0)
(-1.31614 0.0276797 8.41612e-20)
(-1.34891 0.0275733 8.2584e-20)
(-1.38184 0.0274649 0)
(-1.41491 0.027353 0)
(-1.44813 0.0272361 0)
(-1.48148 0.0271129 0)
(-1.51496 0.0269819 0)
(-1.54856 0.0268419 -7.42152e-20)
(-1.58225 0.0266915 0)
(-1.61603 0.0265294 7.17776e-20)
(-1.64987 0.0263544 0)
(-1.68376 0.0261654 0)
(-1.71768 0.0259612 -6.83907e-20)
(-1.7516 0.0257408 0)
(-1.7855 0.0255032 6.62911e-20)
(-1.81935 0.0252472 0)
(-1.85312 0.0249719 0)
(-1.88678 0.0246762 0)
(-1.9203 0.0243588 -6.24133e-20)
(-1.95364 0.0240187 0)
(-1.98676 0.0236548 0)
(-2.01962 0.0232659 -5.97394e-20)
(-2.05219 0.022851 0)
(-2.0844 0.0224088 -5.80473e-20)
(-2.11622 0.0219379 0)
(-2.1476 0.0214372 0)
(-2.17847 0.0209052 0)
(-2.20879 0.0203406 5.48311e-20)
(-2.23849 0.0197422 0)
(-2.26751 0.0191087 0)
(-2.29578 0.0184388 5.2523e-20)
(-2.32323 0.0177315 5.1766e-20)
(-2.34979 0.0169854 0)
(-2.37538 0.0161995 5.02621e-20)
(-2.39993 0.0153727 0)
(-2.42334 0.014504 9.7523e-20)
(-2.44555 0.0135924 0)
(-2.46645 0.0126375 9.45039e-20)
(-2.48595 0.0116387 0)
(-2.50398 0.0105959 -9.14414e-20)
(-2.52043 0.00950914 0)
(-2.53522 0.00837849 0)
(-2.54823 0.00720404 0)
(-2.55939 0.00598557 8.50791e-20)
(-2.5686 0.00472118 0)
(-2.57576 0.00340648 -8.17252e-20)
(-2.58077 0.00204049 0)
(-2.5835 0.000637951 7.81858e-20)
(-2.58388 -0.000783725 7.63085e-20)
(-2.58186 -0.00222623 7.43782e-20)
(-2.57736 -0.00369654 0)
(-2.57032 -0.00519422 0)
(-2.56065 -0.00671768 0)
(-2.54831 -0.00826481 0)
(-2.53323 -0.00983325 0)
(-2.51534 -0.0114205 0)
(-2.49461 -0.0130235 0)
(-2.47099 -0.0146387 0)
(-2.44444 -0.0162616 -5.39207e-20)
(-2.41495 -0.017887 -5.12276e-20)
(-2.38248 -0.0195096 0)
(-2.34705 -0.0211238 0)
(-2.30867 -0.0227238 0)
(-2.26735 -0.0243035 -3.94173e-20)
(-2.22314 -0.0258561 0)
(-2.17608 -0.0273745 0)
(-2.12626 -0.0288511 0)
(-2.07375 -0.0302779 0)
(-2.01867 -0.0316471 2.20007e-20)
(-1.96112 -0.0329507 0)
(-1.90126 -0.0341809 0)
(-1.83923 -0.0353299 -9.93103e-21)
(-1.77521 -0.0363896 5.61152e-21)
(-1.70939 -0.0373519 0)
(-1.64197 -0.0382096 -3.49959e-21)
(-1.57317 -0.0389569 0)
(-1.50321 -0.0395885 1.32725e-20)
(-1.43234 -0.0400994 0)
(-1.36079 -0.040484 0)
(-1.28883 -0.0407377 0)
(-1.21672 -0.0408591 0)
(-1.14471 -0.0408488 0)
(-1.07306 -0.0407054 -9.39527e-20)
(-1.00202 -0.0404265 -1.06574e-19)
(-0.931851 -0.0400141 0)
(-0.862794 -0.0394735 0)
(-0.795078 -0.0388064 0)
(-0.728931 -0.0380123 1.61307e-19)
(-0.664567 -0.0370993 0)
(-0.602182 -0.0360755 0)
(-0.541952 -0.0349403 0)
(-0.484055 -0.0336974 2.22718e-19)
(-0.428646 -0.0323644 -2.38991e-19)
(-0.375848 -0.030947 0)
(-0.325781 -0.0294379 0)
(-0.278559 -0.0278559 -2.89344e-19)
(-0.234265 -0.0262206 -3.0641e-19)
(-0.192952 -0.0245233 0)
(-0.154677 -0.0227727 0)
(-0.119493 -0.0209937 3.57142e-19)
(-0.0874025 -0.0191881 -3.73505e-19)
(-0.0583832 -0.0173638 0)
(-0.0324976 -0.0155434 0)
(-0.00965465 -0.0137329 -4.1908e-19)
(0.0102144 -0.0119505 0)
(0.0272268 -0.0101901 0)
(0.0412218 -0.00849991 -4.41506e-19)
(0.0525193 -0.00689773 0)
(0.0612881 -0.00539681 -4.43971e-19)
(0.0677281 -0.00401243 0)
(0.0720218 -0.00275494 0)
(0.0743762 -0.00163685 0)
(0.0750121 -0.00065128 4.57433e-19)
(0.0741802 0.000204645 0)
(0.072094 0.000919157 0)
(0.0690191 0.00148695 0)
(0.0652386 0.00190056 0)
(0.0610367 0.00215746 0)
(0.0567193 0.00225354 0)
(0.0526119 0.00218423 4.96633e-19)
(0.0490371 0.00195189 5.02917e-19)
(0.0463192 0.0015661 0)
(0.0447798 0.00103312 0)
(0.0447601 0.000367609 0)
(0.0464961 -0.000404422 -5.22818e-19)
(0.0502502 -0.00126806 0)
(0.0561743 -0.00217965 1.05582e-18)
(0.0643874 -0.00308258 -1.0594e-18)
(0.074496 -0.00379636 -1.06236e-18)
(0.0871726 -0.00432516 1.06527e-18)
(0.097875 -0.00375977 -1.06986e-18)
(0.116647 -0.00365884 1.07712e-18)
(0.104672 0.00396756 0)
(0.0029042 -0.0544047 0)
(0.00334908 -0.03393 0)
(-0.00505094 -0.00590569 2.88227e-19)
(-0.0179674 0.0198666 0)
(-0.0339645 0.0415738 -1.87761e-19)
(-0.0525745 0.0588309 -1.70605e-19)
(-0.0734702 0.0716705 -7.94026e-20)
(-0.0964659 0.0805305 -7.48768e-20)
(-0.121411 0.0863953 0)
(-0.148043 0.090217 -6.69447e-20)
(-0.176005 0.0926625 0)
(-0.204968 0.0941687 0)
(-0.234669 0.0950053 1.14129e-19)
(-0.264899 0.09534 5.43993e-20)
(-0.2955 0.0952835 -1.03594e-19)
(-0.326347 0.0949148 -9.90014e-20)
(-0.357341 0.0942958 -4.74917e-20)
(-0.388405 0.0934777 0)
(-0.419479 0.0925045 0)
(-0.450516 0.0914143 0)
(-0.481482 0.0902407 -4.06027e-20)
(-0.512352 0.089013 0)
(-0.54311 0.0877565 1.14421e-19)
(-0.573747 0.086493 0)
(-0.604261 0.0852409 0)
(-0.63466 0.0840162 3.5047e-20)
(-0.664953 0.0828353 0)
(-0.695151 0.0817177 -3.33186e-20)
(-0.725262 0.0806788 -6.49222e-20)
(-0.755295 0.0797209 3.18153e-20)
(-0.785261 0.0788394 0)
(-0.815178 0.0780298 0)
(-0.84506 0.0772877 0)
(-0.874927 0.0766088 -5.84602e-20)
(-0.904797 0.0759891 -5.73706e-20)
(-0.934685 0.0754243 -2.82459e-20)
(-0.964609 0.0749103 0)
(-0.994585 0.0744425 5.45558e-20)
(-1.02463 0.0740166 0)
(-1.05475 0.0736279 -5.27778e-20)
(-1.08496 0.0732717 0)
(-1.11527 0.0729434 0)
(-1.14569 0.0726382 5.03495e-20)
(-1.17623 0.0723515 0)
(-1.20689 0.0720785 1.46274e-19)
(-1.23768 0.0718145 -4.81488e-20)
(-1.2686 0.071555 0)
(-1.29964 0.0712955 -4.67836e-20)
(-1.33081 0.0710317 -4.61273e-20)
(-1.36211 0.0707597 0)
(-1.39352 0.0704756 0)
(-1.42504 0.0701756 0)
(-1.45667 0.0698563 0)
(-1.48838 0.0695142 0)
(-1.52017 0.0691461 4.24931e-20)
(-1.55203 0.0687487 8.35703e-20)
(-1.58393 0.0683188 -4.13784e-20)
(-1.61586 0.0678535 0)
(-1.64781 0.0673499 8.0324e-20)
(-1.67974 0.0668054 -3.94995e-20)
(-1.71163 0.0662172 0)
(-1.74347 0.0655826 -3.87566e-20)
(-1.77522 0.0648992 0)
(-1.80686 0.0641641 0)
(-1.83835 0.0633748 -7.42891e-20)
(-1.86966 0.0625284 3.67945e-20)
(-1.90075 0.0616224 -7.23835e-20)
(-1.93159 0.0606539 7.1446e-20)
(-1.96214 0.0596202 3.53802e-20)
(-1.99236 0.0585185 0)
(-2.0222 0.0573458 3.44564e-20)
(-2.0516 0.0560991 0)
(-2.08053 0.0547752 0)
(-2.10893 0.0533711 0)
(-2.13674 0.0518836 3.243e-20)
(-2.16389 0.0503095 0)
(-2.19034 0.0486458 6.32607e-20)
(-2.21601 0.0468898 -9.36231e-20)
(-2.24082 0.0450387 -3.08077e-20)
(-2.26472 0.0430898 0)
(-2.28762 0.041041 -2.988e-20)
(-2.30945 0.0388901 0)
(-2.33012 0.0366357 -5.7869e-20)
(-2.34954 0.0342767 0)
(-2.36764 0.0318127 -5.59304e-20)
(-2.38433 0.0292437 1.09716e-19)
(-2.39951 0.0265706 5.39319e-20)
(-2.41309 0.0237946 0)
(-2.42498 0.0209176 0)
(-2.43509 0.0179418 0)
(-2.44333 0.0148693 -4.971e-20)
(-2.4496 0.0116997 0)
(-2.45382 0.00842819 4.74673e-20)
(-2.45588 0.00505436 0)
(-2.45567 0.00160527 -1.35379e-19)
(-2.45318 -0.00188717 -4.38158e-20)
(-2.44831 -0.00541948 -4.25231e-20)
(-2.441 -0.00899357 0)
(-2.43118 -0.0126061 0)
(-2.41879 -0.0162515 0)
(-2.40377 -0.0199228 0)
(-2.38608 -0.0236121 0)
(-2.36565 -0.0273109 -6.84665e-20)
(-2.34246 -0.0310097 -6.5393e-20)
(-2.31646 -0.0346974 0)
(-2.28763 -0.0383616 2.91873e-20)
(-2.25595 -0.0419889 2.75076e-20)
(-2.22143 -0.0455648 0)
(-2.18406 -0.0490743 4.88333e-20)
(-2.14388 -0.0525019 0)
(-2.10091 -0.0558313 -2.12664e-20)
(-2.05521 -0.0590457 0)
(-2.00684 -0.0621276 0)
(-1.95587 -0.0650597 3.04065e-20)
(-1.90241 -0.0678243 0)
(-1.84658 -0.070404 -1.07626e-20)
(-1.78849 -0.0727821 0)
(-1.7283 -0.0749425 0)
(-1.66617 -0.0768702 -5.82611e-21)
(-1.60228 -0.0785516 -2.59925e-21)
(-1.53683 -0.0799739 0)
(-1.47002 -0.0811259 -3.47868e-22)
(-1.40207 -0.0819989 0)
(-1.33321 -0.0825873 4.5224e-21)
(-1.26368 -0.0828876 1.44905e-20)
(-1.19372 -0.0828968 0)
(-1.12358 -0.0826133 0)
(-1.05352 -0.0820412 0)
(-0.983791 -0.0811896 0)
(-0.914637 -0.0800661 3.65517e-20)
(-0.846303 -0.0786758 1.19498e-19)
(-0.779035 -0.0770314 0)
(-0.71306 -0.0751531 0)
(-0.648595 -0.0730553 0)
(-0.585848 -0.0707465 -5.64588e-20)
(-0.525019 -0.0682497 0)
(-0.466286 -0.0655903 0)
(-0.409806 -0.0627788 1.3347e-19)
(-0.355733 -0.0598279 6.94762e-20)
(-0.304201 -0.0567726 7.47633e-20)
(-0.255317 -0.0536335 0)
(-0.209171 -0.0504085 0)
(-0.165847 -0.0471275 8.47136e-20)
(-0.125418 -0.0438242 -8.65699e-20)
(-0.0878995 -0.0404964 0)
(-0.0533137 -0.0371595 0)
(-0.0217155 -0.0338478 -9.65411e-20)
(0.00694764 -0.0305699 2.96729e-19)
(0.0327571 -0.0273287 0)
(0.0555795 -0.0241652 0)
(0.0756104 -0.0210955 1.03981e-19)
(0.0929766 -0.0181421 0)
(0.107799 -0.0153176 2.12986e-19)
(0.120174 -0.0126442 -1.07698e-19)
(0.130278 -0.0101411 0)
(0.138281 -0.0078276 1.10688e-19)
(0.14437 -0.00572301 2.23966e-19)
(0.148736 -0.00383781 0)
(0.151587 -0.00218778 0)
(0.153139 -0.000770471 -1.1619e-19)
(0.153643 0.000420817 0)
(0.15334 0.00137377 2.37819e-19)
(0.152488 0.00207748 0)
(0.151359 0.00252372 0)
(0.150232 0.00271126 0)
(0.149397 0.00263715 0)
(0.149149 0.00229854 -1.26225e-19)
(0.149787 0.00170201 -1.27768e-19)
(0.151608 0.000862256 0)
(0.154889 -0.000210354 0)
(0.159862 -0.00148973 0)
(0.166801 -0.00293742 1.33775e-19)
(0.175934 -0.00451895 0)
(0.18741 -0.0061716 -2.73539e-19)
(0.20136 -0.0077933 2.76702e-19)
(0.217539 -0.00917614 2.80021e-19)
(0.236357 -0.0101305 2.82525e-19)
(0.25514 -0.00999446 2.87452e-19)
(0.27997 -0.00914083 2.91141e-19)
(0.289711 -0.00240798 0)
(-0.00804026 -0.043779 0)
(-0.0197391 -0.0062754 0)
(-0.0360925 0.0277854 -1.76305e-19)
(-0.0540821 0.0559254 -1.30289e-19)
(-0.0730081 0.0794898 1.09791e-19)
(-0.0925744 0.0988895 9.83859e-20)
(-0.11298 0.114321 4.79928e-23)
(-0.134467 0.1261 0)
(-0.157162 0.134771 0)
(-0.181032 0.140957 0)
(-0.205935 0.145223 0)
(-0.23169 0.148024 0)
(-0.258119 0.149704 -2.02504e-19)
(-0.285065 0.150519 0)
(-0.312398 0.150657 6.22085e-20)
(-0.34001 0.150264 5.98444e-20)
(-0.367817 0.149452 0)
(-0.395753 0.148313 0)
(-0.423765 0.146923 0)
(-0.451813 0.145347 0)
(-0.479866 0.143638 5.05114e-20)
(-0.507902 0.141845 0)
(-0.535906 0.140007 -4.77096e-20)
(-0.563868 0.138157 0)
(-0.591785 0.136325 0)
(-0.619656 0.134535 0)
(-0.647483 0.132807 -8.63337e-20)
(-0.675271 0.131157 0)
(-0.703023 0.129598 4.14401e-20)
(-0.730745 0.128137 -8.1094e-20)
(-0.758442 0.126774 0)
(-0.786125 0.125508 0)
(-0.813806 0.124338 0)
(-0.841496 0.123258 3.78014e-20)
(-0.869209 0.122264 3.71855e-20)
(-0.896957 0.121352 0)
(-0.924754 0.120515 0)
(-0.95261 0.119747 -7.0838e-20)
(-0.980538 0.119042 -6.98065e-20)
(-1.00855 0.118392 6.88136e-20)
(-1.03665 0.11779 0)
(-1.06485 0.117229 0)
(-1.09315 0.116702 0)
(-1.12157 0.116201 0)
(-1.1501 0.115719 -6.44818e-20)
(-1.17874 0.115249 -6.34855e-20)
(-1.20751 0.114784 6.26783e-20)
(-1.23639 0.114316 0)
(-1.26539 0.113839 0)
(-1.29449 0.113347 0)
(-1.3237 0.112834 0)
(-1.35301 0.112293 -5.88819e-20)
(-1.3824 0.11172 0)
(-1.41187 0.111109 0)
(-1.4414 0.110454 -5.6755e-20)
(-1.47098 0.10975 -5.62324e-20)
(-1.5006 0.108994 0)
(-1.53024 0.108179 1.09429e-19)
(-1.55987 0.107302 -5.42135e-20)
(-1.58948 0.106359 5.35555e-20)
(-1.61905 0.105344 0)
(-1.64855 0.104254 0)
(-1.67795 0.103085 0)
(-1.70724 0.101832 0)
(-1.73637 0.100491 5.0355e-20)
(-1.76532 0.0990573 9.91611e-20)
(-1.79406 0.0975273 4.9107e-20)
(-1.82255 0.0958962 -4.84877e-20)
(-1.85074 0.0941594 0)
(-1.87861 0.0923122 9.424e-20)
(-1.90611 0.0903497 9.30198e-20)
(-1.93319 0.0882671 9.18011e-20)
(-1.9598 0.0860591 -9.05824e-20)
(-1.98589 0.0837206 0)
(-2.01142 0.0812466 -1.32322e-19)
(-2.03631 0.078632 0)
(-2.06051 0.0758717 4.27378e-20)
(-2.08395 0.0729611 4.23141e-20)
(-2.10657 0.0698956 0)
(-2.1283 0.0666712 0)
(-2.14906 0.063284 8.06501e-20)
(-2.16877 0.0597311 0)
(-2.18736 0.0560102 7.8054e-20)
(-2.20475 0.05212 0)
(-2.22083 0.04806 -7.5384e-20)
(-2.23554 0.0438309 -1.48095e-19)
(-2.24879 0.0394343 0)
(-2.26047 0.0348726 0)
(-2.27051 0.0301491 0)
(-2.27881 0.025268 -6.82928e-20)
(-2.28527 0.0202333 0)
(-2.28983 0.0150457 -6.52568e-20)
(-2.29238 0.00970458 0)
(-2.29281 0.00422617 0)
(-2.29109 -0.00134762 1.2054e-19)
(-2.28714 -0.00698953 0)
(-2.28089 -0.0126963 5.6796e-20)
(-2.27228 -0.0184632 0)
(-2.26123 -0.0242822 5.30731e-20)
(-2.24771 -0.0301428 0)
(-2.23164 -0.0360329 0)
(-2.21298 -0.0419386 0)
(-2.19169 -0.047845 1.34865e-19)
(-2.16774 -0.0537349 4.25788e-20)
(-2.14108 -0.0595894 0)
(-2.1117 -0.0653876 0)
(-2.0796 -0.0711072 0)
(-2.04476 -0.0767242 0)
(-2.00721 -0.0822135 -3.12323e-20)
(-1.96697 -0.0875489 5.87667e-20)
(-1.92408 -0.092703 2.64355e-20)
(-1.8786 -0.0976483 -4.91459e-20)
(-1.83059 -0.102357 -4.42536e-20)
(-1.78015 -0.1068 -1.90356e-20)
(-1.72736 -0.11095 0)
(-1.67235 -0.11478 -2.93353e-20)
(-1.61526 -0.118263 0)
(-1.55624 -0.121374 1.92672e-20)
(-1.49544 -0.124091 6.41005e-21)
(-1.43306 -0.126393 0)
(-1.36928 -0.128264 -4.14867e-21)
(-1.30432 -0.129688 1.15445e-21)
(-1.23839 -0.130652 0)
(-1.17171 -0.131152 4.66568e-21)
(-1.10454 -0.131184 -2.42561e-20)
(-1.03709 -0.130749 0)
(-0.969628 -0.129849 0)
(-0.902387 -0.128493 0)
(-0.835615 -0.126698 0)
(-0.769548 -0.124482 -3.92684e-20)
(-0.704418 -0.121858 -4.50893e-20)
(-0.64046 -0.118848 0)
(-0.577889 -0.115489 0)
(-0.516906 -0.111808 0)
(-0.457704 -0.107823 0)
(-0.400467 -0.103571 0)
(-0.345357 -0.0990974 0)
(-0.292513 -0.094423 -7.34771e-20)
(-0.242069 -0.0895705 -9.55268e-22)
(-0.194141 -0.0845925 0)
(-0.148824 -0.0795254 0)
(-0.106178 -0.0743744 -8.64738e-20)
(-0.0662651 -0.0691814 0)
(-0.0291623 -0.0639939 9.34433e-20)
(0.00515851 -0.0588198 9.57007e-20)
(0.0367102 -0.0536757 0)
(0.0653826 -0.0486159 0)
(0.0913033 -0.0436645 -1.02675e-19)
(0.114559 -0.0388411 -2.08359e-19)
(0.135195 -0.0341719 0)
(0.153327 -0.0296887 0)
(0.169076 -0.025423 0)
(0.182573 -0.0213956 -1.11479e-19)
(0.193952 -0.0176279 1.131e-19)
(0.203378 -0.0141394 0)
(0.211024 -0.0109505 2.32329e-19)
(0.217073 -0.00808055 1.17662e-19)
(0.221717 -0.00554402 -2.38624e-19)
(0.22516 -0.00335646 0)
(0.227622 -0.00152275 0)
(0.229332 -3.98319e-05 -2.47892e-19)
(0.230545 0.00108341 -1.25496e-19)
(0.231504 0.00183459 0)
(0.232465 0.00220558 0)
(0.233694 0.00219399 0)
(0.235463 0.00179953 0)
(0.238041 0.00102586 -2.6669e-19)
(0.241712 -0.00011434 0)
(0.246707 -0.00159937 0)
(0.253281 -0.00340695 0)
(0.261691 -0.00550706 0)
(0.272168 -0.00785408 0)
(0.284914 -0.0103881 0)
(0.300068 -0.0130158 -2.90831e-19)
(0.317765 -0.0155997 0)
(0.337846 -0.0178965 0)
(0.360713 -0.0196622 -6.07374e-19)
(0.384484 -0.0202124 3.08066e-19)
(0.414342 -0.0199205 -3.14832e-19)
(0.435573 -0.014593 3.20404e-19)
(-0.0156041 -0.00908604 0)
(-0.0327896 0.0358859 4.82877e-19)
(-0.0522514 0.0697763 0)
(-0.0729542 0.0975229 9.85803e-20)
(-0.093652 0.120992 0)
(-0.114114 0.140725 0)
(-0.134616 0.156952 -6.64744e-20)
(-0.155447 0.169902 0)
(-0.176802 0.179915 0)
(-0.198773 0.187404 0)
(-0.221367 0.192794 0)
(-0.244538 0.196475 0)
(-0.268211 0.198783 1.97052e-19)
(-0.292303 0.199995 9.47668e-20)
(-0.316733 0.200334 -9.12972e-20)
(-0.34143 0.199979 0)
(-0.366332 0.199077 0)
(-0.39139 0.197748 0)
(-0.416561 0.19609 0)
(-0.441813 0.194187 0)
(-0.46712 0.19211 7.5294e-20)
(-0.492462 0.189918 7.32743e-20)
(-0.517826 0.187662 -7.14009e-20)
(-0.5432 0.185385 6.96611e-20)
(-0.568578 0.183121 0)
(-0.593957 0.1809 0)
(-0.619336 0.178746 6.51862e-20)
(-0.644713 0.176679 0)
(-0.670092 0.174711 0)
(-0.695475 0.172852 6.14894e-20)
(-0.720867 0.171106 6.03354e-20)
(-0.746274 0.169475 5.93073e-20)
(-0.771704 0.167958 0)
(-0.797165 0.166552 0)
(-0.822668 0.165252 -5.65361e-20)
(-0.848221 0.164053 0)
(-0.873834 0.162948 0)
(-0.899516 0.161929 5.42155e-20)
(-0.925276 0.160988 -5.33223e-20)
(-0.951122 0.160117 5.26135e-20)
(-0.97706 0.159307 0)
(-1.0031 0.158547 0)
(-1.02924 0.157829 1.01415e-19)
(-1.05549 0.157143 0)
(-1.08184 0.156479 9.89515e-20)
(-1.10831 0.155828 1.46731e-19)
(-1.13489 0.155181 -1.4499e-19)
(-1.16158 0.154528 9.54652e-20)
(-1.18838 0.153861 0)
(-1.21527 0.153172 0)
(-1.24226 0.152451 9.21705e-20)
(-1.26934 0.151692 4.5638e-20)
(-1.29649 0.150887 0)
(-1.32372 0.150029 0)
(-1.35099 0.149111 4.40812e-20)
(-1.37831 0.148125 8.69813e-20)
(-1.40566 0.147067 0)
(-1.43301 0.145929 -8.5148e-20)
(-1.46036 0.144706 8.39995e-20)
(-1.48769 0.143392 -8.30227e-20)
(-1.51496 0.141981 0)
(-1.54217 0.140468 0)
(-1.56928 0.138846 0)