/*--------------------------------*- C++ -*----------------------------------*\
| =========                 |                                                 |
| \\      /  F ield         | OpenFOAM: The Open Source CFD Toolbox           |
|  \\    /   O peration     | Version:  2.2.x                                 |
|   \\  /    A nd           | Web:      www.OpenFOAM.org                      |
|    \\/     M anipulation  |                                                 |
\*---------------------------------------------------------------------------*/
FoamFile
{
    version     2.0;
    format      ascii;
    class       volScalarField;
    location    "50";
    object      epsilon;
}
// * * * * * * * * * * * * * * * * * * * * * * * * * * * * * * * * * * * * * //

dimensions      [0 2 -3 0 0 0 0];

internalField   nonuniform List<scalar> 
12225
(
1739.08
3020.24
4029.05
4711.97
5126.9
5349.21
5442.5
5453.36
5413.59
5343.96
5257.75
5163.34
5065.9
4968.49
4872.41
4777.36
4680.92
4590.22
187.517
345.654
472.452
573.566
646.707
695.397
725.836
743.782
753.667
758.622
760.752
761.414
761.505
761.737
763.195
768.608
786.046
829.355
41.8557
72.5783
98.7889
121.098
139.373
153.704
164.587
172.654
178.534
182.773
185.824
188.043
189.719
191.169
193.067
197.285
208.4
234.393
20.3636
28.0062
35.5377
42.4631
48.6048
53.899
58.3753
62.111
65.2023
67.7468
69.8362
71.5537
72.9899
74.332
76.2418
80.8829
93.0599
119.15
16.0578
18.2221
20.6989
23.2
25.5859
27.7849
29.7697
31.5382
33.1017
34.4783
35.691
36.7757
37.8275
39.1992
42.1175
49.6194
66.3161
96.5581
15.0138
15.5487
16.3218
17.2157
18.1513
19.078
19.9664
20.8014
21.577
22.2947
22.9665
23.6389
24.4916
26.1784
30.5668
41.1911
62.131
96.5535
14.7587
14.7825
14.9243
15.1567
15.4503
15.7798
16.1261
16.4761
16.8222
17.1639
17.5175
17.9601
18.7936
21.0148
27.0479
40.6882
65.571
104.157
14.7066
14.6003
14.5507
14.555
14.6049
14.6902
14.801
14.9294
15.0708
15.227
15.4226
15.7675
16.6733
19.4025
26.7322
42.5655
70.262
111.959
14.6926
14.545
14.4249
14.3345
14.2729
14.2373
14.2241
14.2296
14.2518
14.2943
14.3833
14.6315
15.4583
18.1356
25.4323
41.242
68.996
110.99
14.6886
14.5277
14.3815
14.2514
14.1381
14.0412
13.96
13.8936
13.8416
13.8081
13.8146
13.953
14.5716
16.7608
23.0156
37.1155
62.7934
102.896
14.6875
14.523
14.3691
14.2257
14.0931
13.9711
13.8597
13.7587
13.6684
13.5918
13.5431
13.584
13.9549
15.4581
20.1159
31.4208
53.4555
89.8909
14.6871
14.5219
14.366
14.2192
14.0809
13.951
13.8291
13.7152
13.6092
13.513
13.4341
13.4067
13.5692
14.4224
17.4077
25.4986
42.9607
74.3858
14.6869
14.5215
14.3652
14.2177
14.0782
13.9464
13.8219
13.7043
13.5936
13.4903
13.3981
13.3325
13.3607
13.7455
15.3676
20.4756
33.1537
58.7648
14.6868
14.5213
14.365
14.2172
14.0776
13.9455
13.8206
13.7024
13.5907
13.4857
13.3885
13.3056
13.2649
13.3844
14.1227
16.9498
25.3375
44.9904
14.6867
14.5211
14.3647
14.217
14.0774
13.9454
13.8205
13.7024
13.5908
13.4855
13.3869
13.2973
13.2274
13.2249
13.5013
14.895
19.9967
34.2548
14.6866
14.5209
14.3645
14.2169
14.0773
13.9454
13.8206
13.7027
13.5913
13.4861
13.3873
13.2955
13.2146
13.1641
13.2384
13.8849
16.8589
26.877
14.6865
14.5208
14.3644
14.2167
14.0772
13.9454
13.8208
13.703
13.5917
13.4867
13.3878
13.2952
13.2105
13.1426
13.1393
13.4568
15.2916
22.5602
14.6864
14.5207
14.3643
14.2166
14.0772
13.9454
13.8209
13.7032
13.592
13.487
13.388
13.2949
13.2087
13.1355
13.1096
13.3266
14.7684
20.9646
14.6863
14.5206
14.3642
14.2166
14.0772
13.9455
13.8211
13.7034
13.5922
13.4871
13.3878
13.2943
13.2075
13.1332
13.1058
13.3175
14.7325
20.8411
14.6863
14.5206
14.3643
14.2167
14.0774
13.9458
13.8214
13.7038
13.5926
13.4874
13.388
13.2942
13.2071
13.1332
13.1089
13.3322
14.7665
20.8478
14.6863
14.5207
14.3644
14.217
14.0778
13.9464
13.8223
13.7051
13.5943
13.4895
13.3905
13.2973
13.2108
13.138
13.1158
13.3358
14.7004
20.4062
14.6864
14.5209
14.365
14.2182
14.0801
13.9502
13.8281
13.7134
13.6056
13.5044
13.4095
13.3207
13.2391
13.1715
13.1519
13.3487
14.5311
19.448
14.6867
14.5224
14.3692
14.227
14.0958
13.9753
13.865
13.7644
13.6727
13.5893
13.5134
13.4447
13.3839
13.3366
13.3311
13.4996
14.4296
18.2693
14.6895
14.5345
14.3996
14.2859
14.1929
14.1189
14.062
14.0194
13.989
13.9683
13.9556
13.9494
13.9495
13.9598
14.0004
14.1623
14.8387
17.5189
14.7118
14.6193
14.5872
14.609
14.6741
14.7715
14.891
15.0244
15.1651
15.3085
15.4509
15.5902
15.7253
15.8584
16.0017
16.2075
16.6975
18.3469
14.8709
15.1205
15.5394
16.0605
16.6341
17.2251
17.8104
18.3755
18.9122
19.4156
19.8836
20.3157
20.7127
21.0771
21.4158
21.753
22.1852
23.1092
15.8751
17.701
19.7744
21.8701
23.8959
25.805
27.5751
29.1983
30.6741
32.0065
33.2017
34.2678
35.2134
36.0469
36.7767
37.4134
37.9849
38.606
22.1656
31.0879
39.277
46.812
53.7502
60.0635
65.7423
70.7965
75.2483
79.1303
82.4832
85.353
87.7859
89.8245
91.5028
92.8435
93.8535
94.5312
68.0036
114.809
154.577
191.43
225.494
256.12
283.012
306.157
325.724
342.008
355.371
366.203
374.872
381.708
386.98
390.887
393.529
394.8
723.136
1065.46
1375.86
1655.55
1913.82
2143.77
2342.14
2508.58
2644.74
2753.47
2838.13
2902.18
2948.94
2981.44
3002.36
3014.05
3018.56
3017.47
38.0715
34.0082
45.602
56.0544
65.6639
74.6235
83.0473
91.0039
98.5394
105.69
112.479
118.93
125.06
130.885
136.421
141.68
146.674
151.418
155.924
160.206
164.28
168.161
171.865
175.412
178.83
182.159
185.251
187.972
190.307
192.247
193.782
194.907
195.619
195.92
195.814
195.309
194.418
193.157
191.546
189.606
187.359
184.832
182.055
179.055
175.86
172.497
168.991
165.361
161.629
157.813
153.921
149.965
145.961
141.92
137.852
133.845
130.015
126.395
122.951
119.589
116.45
114.098
112.541
111.247
110.042
108.888
107.781
106.723
105.712
104.748
103.829
102.957
102.131
101.352
100.619
99.931
99.2896
98.6967
98.1521
97.6545
97.2036
96.8006
96.4465
96.1416
95.8861
95.6802
95.5243
95.4188
95.3639
95.3598
95.4064
95.5038
95.6522
95.8516
96.1019
96.4029
96.7544
97.1559
97.6074
98.1085
98.6586
99.257
99.9029
100.595
101.332
102.113
102.936
103.8
104.703
105.644
106.619
107.627
108.665
109.732
110.825
111.94
113.076
114.229
115.397
116.577
117.765
118.96
120.158
121.356
122.552
123.743
124.927
126.101
127.262
128.409
129.539
130.651
131.741
132.81
133.854
134.874
135.868
136.834
137.772
138.681
139.559
140.405
141.215
141.989
142.731
143.441
144.119
144.768
145.388
145.981
146.547
147.087
147.601
148.089
148.552
148.992
149.408
149.799
150.167
150.512
150.832
151.128
151.399
151.644
151.862
152.051
152.208
152.329
152.409
152.441
152.414
152.316
152.128
151.825
151.37
150.709
149.761
148.388
146.394
142.676
65.2104
40.5304
47.3868
53.8379
58.6505
62.2471
64.9835
67.1083
68.792
70.1518
71.2698
72.2045
73.0008
73.6934
74.3102
74.8752
75.4085
75.9282
76.4505
76.9905
77.5614
78.1749
78.8416
79.5714
80.3741
81.2594
82.2449
83.2195
84.1532
85.0318
85.8424
86.5721
87.2088
87.7418
88.1622
88.4631
88.6407
88.6938
88.6232
88.4323
88.1253
87.708
87.1866
86.5669
85.8554
85.0577
84.1797
83.2279
82.2093
81.1314
80.0014
78.8244
77.6047
76.3482
75.058
73.7307
72.363
70.9221
69.4548
68.0758
66.7434
65.4181
64.1609
62.947
61.7617
60.6007
59.4634
58.3508
57.2644
56.2054
55.1744
54.172
53.1985
52.2539
51.3382
50.4514
49.5933
48.7635
47.9616
47.1876
46.441
45.7216
45.0289
44.3625
43.7221
43.1074
42.5181
41.9537
41.4139
40.8982
40.4061
39.9374
39.4917
39.0686
38.6676
38.2884
37.9304
37.5934
37.2767
36.98
36.7028
36.4445
36.2048
35.9832
35.7792
35.5924
35.4222
35.2682
35.1298
35.0066
34.898
34.8036
34.7227
34.6548
34.5995
34.5561
34.5243
34.5034
34.493
34.4926
34.5016
34.5197
34.5464
34.5812
34.6237
34.6735
34.7303
34.7937
34.8635
34.9392
35.0207
35.1076
35.1998
35.2971
35.3992
35.506
35.6171
35.7324
35.8515
35.9741
36.0998
36.2283
36.3598
36.4982
36.6433
36.7927
36.9443
37.0941
37.2419
37.3881
37.5329
37.6768
37.8203
37.9634
38.1065
38.2496
38.393
38.537
38.6817
38.8275
38.9746
39.1239
39.2754
39.43
39.5882
39.7508
39.9191
40.0943
40.2783
40.4735
40.6837
40.9135
41.1699
41.4636
41.812
42.2442
42.816
43.6535
45.1129
48.8097
89.8406
44.2149
47.2031
51.7938
55.0606
57.1497
58.4297
59.1806
59.5922
59.7876
59.847
59.8248
59.7599
59.6826
59.618
59.5871
59.6089
59.6992
59.8718
60.1373
60.5039
60.9764
61.5563
62.2416
63.0276
63.9057
64.8664
65.8526
66.8382
67.8024
68.7258
69.5899
70.3774
71.0727
71.6633
72.1393
72.4943
72.7248
72.8299
72.8111
72.6715
72.4153
72.0477
71.5741
71.0006
70.3345
69.5837
68.7565
67.8603
66.9018
65.8854
64.8105
63.6695
62.4464
61.1282
59.7032
58.248
56.7777
55.3254
53.922
52.5792
51.2944
50.0629
48.874
47.7177
46.588
45.4827
44.4012
43.3439
42.3115
41.3047
40.3239
39.3695
38.4417
37.5403
36.6654
35.8166
34.9938
34.1963
33.4238
32.6759
31.9522
31.2522
30.5752
29.9209
29.2887
28.6782
28.089
27.5203
26.9719
26.4431
25.9334
25.4424
24.9695
24.5143
24.0762
23.6549
23.2498
22.8606
22.4866
22.1275
21.7828
21.4521
21.1349
20.8308
20.5393
20.26
19.9926
19.7366
19.4917
19.2574
19.0334
18.8194
18.6149
18.4196
18.2331
18.0552
17.8855
17.7236
17.5693
17.4223
17.2823
17.1491
17.0223
16.9018
16.7872
16.6785
16.5753
16.4775
16.385
16.2975
16.215
16.1372
16.064
15.9954
15.9311
15.8711
15.8152
15.7634
15.7156
15.6715
15.6312
15.5947
15.5621
15.5334
15.5086
15.4882
15.4742
15.4661
15.462
15.4609
15.4626
15.4669
15.4738
15.4831
15.4949
15.5091
15.5257
15.5448
15.5665
15.591
15.6186
15.6494
15.6838
15.7224
15.7657
15.8147
15.8703
15.934
16.008
16.0948
16.1984
16.3245
16.4816
16.6832
16.952
17.3294
17.8997
18.8561
20.7914
114.069
47.163
46.1574
49.2814
51.8338
53.4962
54.5045
55.0863
55.3998
55.5457
55.5862
55.5621
55.5035
55.4349
55.3789
55.3568
55.3888
55.4935
55.6875
55.9846
56.3949
56.9248
57.5766
58.3482
59.2334
60.2218
61.3013
62.4113
63.5121
64.5749
65.5744
66.4873
67.2931
67.9752
68.5208
68.9212
69.172
69.2724
69.2248
69.0333
68.7039
68.2434
67.6588
66.958
66.1496
65.2432
64.2487
63.1758
62.0323
60.823
59.5453
58.1901
56.7502
55.2238
53.684
52.1485
50.6365
49.1581
47.7233
46.3401
45.0127
43.7404
42.5188
41.3422
40.2047
39.1022
38.0319
36.9922
35.9823
35.0016
34.0499
33.1267
32.2318
31.3647
30.5248
29.7118
28.9249
28.1636
27.4273
26.7152
26.0269
25.3616
24.7187
24.0976
23.4977
22.9185
22.3592
21.8194
21.2985
20.796
20.3113
19.844
19.3934
18.9592
18.5407
18.1377
17.7495
17.3758
17.016
16.6699
16.3369
16.0166
15.7087
15.4127
15.1282
14.8548
14.5922
14.3401
14.0979
13.8655
13.6424
13.4283
13.2229
13.0259
12.8369
12.6557
12.4819
12.3152
12.1554
12.0022
11.8554
11.7146
11.5797
11.4503
11.3263
11.2074
11.0934
10.9842
10.8794
10.7791
10.6829
10.5907
10.5023
10.4177
10.3366
10.2588
10.1844
10.1131
10.0448
9.97938
9.91679
9.85691
9.79966
9.74497
9.6928
9.64313
9.59599
9.55156
9.51006
9.47216
9.43752
9.4055
9.37589
9.34847
9.32309
9.29962
9.27795
9.25802
9.23977
9.2232
9.20831
9.19519
9.18391
9.17462
9.1675
9.16286
9.16107
9.16265
9.16833
9.17909
9.19629
9.22189
9.25873
9.31118
9.38611
9.49506
9.65877
9.91741
10.3538
11.1713
138.64
50.6938
45.7551
47.6404
49.8956
51.677
53.0029
53.9984
54.7649
55.3694
55.8532
56.2439
56.5629
56.8311
57.07
57.3027
57.5536
57.8473
58.2075
58.6554
59.2086
59.8801
60.677
61.6007
62.6465
63.8033
65.056
66.3333
67.57
68.7242
69.7619
70.6544
71.3786
71.9179
72.2622
72.4077
72.3561
72.1137
71.69
71.0964
70.3453
69.4493
68.4207
67.2724
66.0175
64.6693
63.2403
61.7409
60.1797
58.5575
56.8572
55.0832
53.2986
51.54
49.8252
48.1621
46.5561
45.0099
43.5255
42.1036
40.7438
39.444
38.2004
37.0089
35.8651
34.7656
33.7074
32.6881
31.7059
30.7593
29.8469
28.9675
28.1199
27.3031
26.516
25.7574
25.0264
24.3218
23.6427
22.9882
22.3573
21.7491
21.1628
20.5976
20.0527
19.5273
19.0209
18.5327
18.062
17.6083
17.171
16.7496
16.3435
15.9522
15.5753
15.2123
14.8628
14.5263
14.2024
13.8908
13.591
13.3027
13.0255
12.7591
12.5031
12.2572
12.021
11.7942
11.5766
11.3678
11.1674
10.9753
10.7911
10.6144
10.4452
10.2829
10.1275
9.97861
9.83597
9.69934
9.56848
9.44314
9.3231
9.20812
9.09799
8.99249
8.89141
8.79457
8.70177
8.61281
8.52754
8.44576
8.36733
8.29207
8.21984
8.15049
8.08387
8.01986
7.95833
7.89917
7.84226
7.78748
7.73475
7.68397
7.63508
7.588
7.54271
7.49919
7.45748
7.41772
7.38015
7.34458
7.31085
7.27879
7.24825
7.21911
7.19126
7.16461
7.13908
7.11463
7.09121
7.06882
7.04747
7.02718
7.00803
6.99012
6.97361
6.95872
6.94577
6.93521
6.92767
6.92404
6.92568
6.93461
6.95411
6.98957
7.05062
7.1551
7.33735
7.66951
164.905
55.5299
46.8129
47.6924
49.9432
52.186
54.1853
55.9353
57.4702
58.8207
60.0085
61.0505
61.9623
62.7616
63.4704
64.1153
64.7266
65.3374
65.982
66.6926
67.4981
68.4211
69.4765
70.67
71.9978
73.4465
74.9954
76.5449
77.9935
79.2792
80.3547
81.1838
81.7415
82.014
81.999
81.7034
81.1416
80.3338
79.3026
78.0719
76.6653
75.1053
73.4128
71.6082
69.7109
67.7385
65.7057
63.6229
61.4963
59.3218
57.0943
54.915
52.8064
50.7765
48.8287
46.9647
45.1841
43.4856
41.8673
40.3269
38.8616
37.4679
36.1417
34.879
33.6759
32.5285
31.4334
30.3877
29.3887
28.434
27.5214
26.6486
25.8139
25.0153
24.2511
23.5194
22.8188
22.1475
21.5041
20.8872
20.2955
19.7276
19.1824
18.6587
18.1554
17.6717
17.2065
16.7589
16.3283
15.9138
15.5146
15.1303
14.7601
14.4035
14.0601
13.7292
13.4104
13.1034
12.8077
12.523
12.2489
11.985
11.731
11.4866
11.2516
11.0256
10.8084
10.5997
10.3992
10.2066
10.0218
9.84448
9.67437
9.51124
9.35485
9.20498
9.0614
8.92386
8.79215
8.66605
8.54534
8.4298
8.31923
8.21342
8.11216
8.01526
7.92253
7.83378
7.74883
7.66751
7.58963
7.51503
7.44357
7.37506
7.30937
7.24636
7.18587
7.12778
7.07195
7.01828
6.96664
6.91692
6.86902
6.82285
6.77831
6.73534
6.69388
6.65388
6.61532
6.57823
6.54266
6.50869
6.47618
6.44502
6.41509
6.38628
6.3585
6.33165
6.30566
6.28046
6.256
6.23224
6.20916
6.18673
6.16497
6.1439
6.12357
6.10406
6.08551
6.0681
6.05212
6.03797
6.02629
6.01803
6.01475
6.01902
6.0354
6.07209
6.14405
6.27887
194.292
62.1958
49.8401
49.9486
52.4217
55.342
58.2163
60.9053
63.3736
65.6182
67.6457
69.4658
71.0917
72.5417
73.8406
75.0208
76.1217
77.1882
78.2686
79.4102
80.6558
82.0399
83.5848
85.2987
87.1741
89.1868
91.3006
93.3432
95.1674
96.6812
97.8189
98.5362
98.8103
98.6389
98.0376
97.0361
95.6736
93.9947
92.045
89.869
87.5081
84.9996
82.3772
79.6711
76.9059
74.1031
71.2773
68.4301
65.5699
62.7353
59.9982
57.379
54.8797
52.4992
50.2351
48.0842
46.0426
44.1061
42.2704
40.531
38.8834
37.3229
35.8448
34.4447
33.118
31.8606
30.6687
29.5387
28.4671
27.4509
26.4871
25.5729
24.7055
23.8825
23.1013
22.3596
21.655
20.9854
20.3488
19.743
19.1663
18.6167
18.0927
17.5926
17.1149
16.6582
16.2212
15.8027
15.4015
15.0166
14.6471
14.2921
13.9507
13.6223
13.3061
13.0016
12.7081
12.4252
12.1525
11.8895
11.6358
11.391
11.155
10.9273
10.7077
10.496
10.2919
10.0952
9.90572
9.72322
9.54753
9.37845
9.21582
9.05943
8.90914
8.76475
8.62609
8.49299
8.36528
8.24278
8.12533
8.01276
7.90488
7.80154
7.70256
7.60778
7.51703
7.43015
7.34698
7.26736
7.19114
7.11816
7.04827
6.98132
6.91718
6.8557
6.79674
6.74019
6.6859
6.63377
6.58367
6.53549
6.48913
6.4445
6.4015
6.36005
6.32009
6.28156
6.24443
6.20867
6.17428
6.14134
6.10974
6.07939
6.05018
6.022
5.99477
5.9684
5.94281
5.91792
5.89367
5.87002
5.8469
5.82428
5.80213
5.78044
5.75919
5.73839
5.71809
5.69833
5.67922
5.66093
5.64372
5.62802
5.61457
5.60461
5.60039
5.60591
5.62829
5.67933
227.948
71.1028
55.1397
54.6537
57.4965
61.2053
65.0391
68.7318
72.1858
75.3707
78.2836
80.934
83.3387
85.5217
87.5162
89.3658
91.1248
92.8551
94.6232
96.4941
98.5255
100.761
103.226
105.92
108.818
111.865
114.988
117.854
120.271
122.112
123.291
123.763
123.518
122.584
121.014
118.881
116.269
113.263
109.947
106.397
102.68
98.855
94.9673
91.0616
87.1607
83.2861
79.4515
75.6479
72.0005
68.525
65.2256
62.0987
59.1378
56.3356
53.6846
51.1771
48.8059
46.5638
44.444
42.4399
40.5455
38.7547
37.0621
35.4623
33.9506
32.5221
31.1728
29.8984
28.6953
27.5598
26.4886
25.4782
24.5257
23.6279
22.7818
21.9846
21.2335
20.5256
19.8585
19.2295
18.6362
18.0762
17.5472
17.0472
16.574
16.1257
15.7005
15.2967
14.9127
14.5469
14.1981
13.8649
13.5462
13.2408
12.9479
12.6666
12.396
12.1354
11.8842
11.6419
11.4078
11.1816
10.9629
10.7513
10.5465
10.3483
10.1564
9.97056
9.79069
9.61657
9.44808
9.28507
9.12743
8.97505
8.82782
8.68564
8.5484
8.416
8.28834
8.16532
8.04684
7.9328
7.82308
7.71757
7.61616
7.51874
7.42519
7.33539
7.24921
7.16654
7.08725
7.01121
6.93831
6.86842
6.8014
6.73714
6.67551
6.61639
6.55967
6.50523
6.45296
6.40274
6.35449
6.30809
6.26347
6.22054
6.17923
6.13948
6.10125
6.0645
6.02922
5.99544
5.96309
5.93204
5.9022
5.87346
5.84573
5.8189
5.79289
5.76764
5.74304
5.71905
5.6956
5.67262
5.65006
5.62787
5.60602
5.58447
5.56318
5.54215
5.52136
5.50086
5.48071
5.46105
5.44221
5.42477
5.40987
5.39963
5.39784
5.41035
266.528
82.4902
62.7881
61.7777
65.0463
69.5614
74.3458
79.0184
83.4289
87.5292
91.3172
94.8109
98.0402
101.045
103.875
106.595
109.28
112.016
114.891
117.988
121.374
125.091
129.15
133.521
138.13
142.851
147.535
151.584
154.78
156.963
158.035
157.963
156.773
154.549
151.412
147.51
142.998
138.027
132.739
127.25
121.667
116.073
110.514
105.065
99.7187
94.4904
89.5232
84.8236
80.3952
76.2274
72.3064
68.6173
65.1448
61.8748
58.7936
55.8887
53.1483
50.5619
48.1195
45.8122
43.6319
41.571
39.6229
37.7813
36.0406
34.3957
32.8419
31.3749
29.9907
28.6854
27.4555
26.2976
25.2085
24.1849
23.2236
22.3217
21.4761
20.6838
19.9419
19.2475
18.5978
17.99
17.4214
16.8893
16.3912
15.9246
15.4872
15.0766
14.6908
14.3277
13.9854
13.6621
13.3561
13.0659
12.79
12.5272
12.2762
12.0359
11.8053
11.5837
11.3701
11.1639
10.9645
10.7714
10.584
10.4021
10.2253
10.0532
9.88574
9.72263
9.56375
9.40897
9.25819
9.11134
8.96837
8.82922
8.69386
8.56225
8.43438
8.31023
8.18978
8.073
7.95987
7.85036
7.74443
7.64204
7.54315
7.44771
7.35565
7.26692
7.18145
7.09916
7.01998
6.94381
6.87057
6.80016
6.7325
6.66747
6.60499
6.54495
6.48726
6.43182
6.37854
6.32732
6.27809
6.23077
6.18529
6.1416
6.09964
6.05938
6.02081
5.98394
5.94869
5.91494
5.88257
5.85148
5.82154
5.79267
5.76475
5.73771
5.71145
5.68588
5.66093
5.63651
5.61256
5.58899
5.56575
5.54275
5.51993
5.49723
5.47456
5.45188
5.42912
5.4063
5.38349
5.36094
5.33925
5.31964
5.30445
5.29712
309.945
96.3336
72.6112
71.021
74.6725
79.9311
85.5859
91.1526
96.4411
101.397
106.03
110.38
114.501
118.461
122.338
126.228
130.236
134.473
139.05
144.059
149.565
155.591
162.105
169.017
176.182
183.404
190.021
195.531
199.613
202.055
202.747
201.68
198.943
194.711
189.213
182.713
175.471
167.738
159.747
151.645
143.601
135.744
128.035
120.67
113.74
107.242
101.176
95.5195
90.2458
85.3271
80.7356
76.4444
72.4284
68.6647
65.1326
61.813
58.6891
55.7454
52.9686
50.3465
47.8685
45.5248
43.3072
41.2079
39.2205
37.339
35.5582
33.8731
32.2797
30.7739
29.3522
28.0112
26.7476
25.5585
24.4408
23.3917
22.4083
21.4877
20.6271
19.8238
19.0747
18.3772
17.7283
17.1252
16.5651
16.0453
15.5629
15.1153
14.7
14.3142
13.9557
13.6222
13.3112
13.0209
12.7491
12.494
12.2539
12.0272
11.8124
11.6082
11.4134
11.2268
11.0475
10.8746
10.7074
10.5452
10.3874
10.2335
10.0831
9.936
9.79179
9.6503
9.51139
9.37493
9.24084
9.10909
8.97965
8.85254
8.72779
8.60544
8.48553
8.36812
8.25326
8.14102
8.03144
7.92459
7.82049
7.7192
7.62073
7.52511
7.43236
7.34246
7.25541
7.1712
7.08978
7.01111
6.93516
6.86187
6.79118
6.72302
6.65733
6.59403
6.53306
6.47435
6.41783
6.36343
6.31111
6.26082
6.21252
6.16618
6.12178
6.07935
6.03881
6.00004
5.9629
5.92728
5.89306
5.86011
5.82833
5.79762
5.76785
5.73895
5.7108
5.68331
5.65638
5.62992
5.60383
5.57801
5.55236
5.52675
5.50109
5.47523
5.44907
5.42248
5.39543
5.36798
5.34046
5.31367
5.28926
5.26969
357.126
112.281
84.1703
81.8315
85.7307
91.5982
97.9921
104.334
110.402
116.147
121.602
126.839
131.951
137.043
142.232
147.651
153.438
159.729
166.649
174.292
182.701
191.855
201.656
211.923
222.386
232.721
241.79
249.087
254.205
256.862
256.918
254.391
249.456
242.418
233.664
223.644
212.754
201.366
189.903
178.464
167.297
156.754
146.869
137.67
129.151
121.28
114.017
107.313
101.121
95.3938
90.0872
85.1606
80.5768
76.3027
72.3085
68.5679
65.0575
61.7567
58.6475
55.7142
52.9427
50.3209
47.8383
45.4855
43.2544
41.1379
39.1297
37.2244
35.4171
33.7036
32.08
30.5429
29.0889
27.7152
26.419
25.1978
24.0488
22.9697
21.9579
21.0111
20.1268
19.3023
18.5352
17.8228
17.1626
16.5516
15.9873
15.4669
14.9876
14.5467
14.1414
13.7689
13.4267
13.1122
12.8229
12.5564
12.3104
12.0828
11.8716
11.6748
11.4907
11.3177
11.1542
10.9991
10.8509
10.7087
10.5715
10.4384
10.3088
10.182
10.0574
9.93473
9.81355
9.69363
9.57474
9.45675
9.33958
9.2232
9.1076
8.99284
8.87897
8.76608
8.65428
8.54369
8.43443
8.32663
8.22043
8.11594
8.01329
7.91259
7.81395
7.71745
7.62318
7.53119
7.44155
7.35429
7.26943
7.18698
7.10696
7.02935
6.95413
6.88129
6.81078
6.7426
6.67669
6.61304
6.5516
6.49237
6.43532
6.38044
6.32774
6.27724
6.22892
6.18265
6.1383
6.09574
6.05485
6.01551
5.97757
5.94094
5.90548
5.87109
5.83764
5.80502
5.7731
5.74178
5.71092
5.68041
5.65009
5.61983
5.58945
5.55879
5.52767
5.49591
5.4634
5.43009
5.39618
5.36227
5.32967
5.30043
405.727
129.625
96.7902
93.452
97.3882
103.678
110.648
117.629
124.375
130.848
137.107
143.265
149.454
155.824
162.533
169.749
177.636
186.354
196.033
206.761
218.558
231.362
245.016
259.241
273.6
287.555
299.646
309.275
315.863
318.97
318.382
314.123
306.481
295.937
283.059
268.656
253.26
237.271
221.645
206.659
192.512
179.329
167.144
155.944
145.686
136.307
127.735
119.896
112.715
106.126
100.064
94.4716
89.2985
84.4992
80.0337
75.8672
71.9692
68.3131
64.8759
61.6376
58.5807
55.6902
52.9529
50.3575
47.894
45.5538
43.3295
41.2146
39.2033
37.2907
35.4723
33.7442
32.103
30.5456
29.0691
27.6709
26.3488
25.1003
23.9234
22.8161
21.7763
20.8019
19.8909
19.0412
18.2506
17.517
16.8379
16.2109
15.6336
15.1034
14.6175
14.1734
13.7682
13.3993
13.0638
12.7591
12.4825
12.2313
12.0031
11.7954
11.606
11.4327
11.2735
11.1264
10.9897
10.8618
10.7412
10.6266
10.5168
10.4108
10.3077
10.2067
10.1071
10.0084
9.91008
9.81179
9.71326
9.61431
9.5148
9.41467
9.31391
9.21257
9.11072
9.00847
8.90597
8.80336
8.70084
8.59857
8.49674
8.39555
8.29517
8.19578
8.09756
8.00064
7.90518
7.8113
7.71911
7.62871
7.54018
7.4536
7.369
7.28645
7.20598
7.12761
7.05137
6.97728
6.90535
6.8356
6.76805
6.70273
6.63967
6.57891
6.52053
6.46444
6.41051
6.35862
6.30865
6.26048
6.21399
6.16903
6.12549
6.08324
6.04214
6.00207
5.96288
5.92444
5.88659
5.84919
5.81205
5.77502
5.73787
5.70039
5.66237
5.62358
5.58385
5.54308
5.50143
5.45936
5.41807
5.37941
452.191
147.37
109.651
105.038
108.756
115.249
122.617
130.1
137.425
144.556
151.576
158.628
165.883
173.522
181.733
190.707
200.627
211.664
223.96
237.61
252.647
269.02
286.569
304.993
323.79
341.77
357.743
370.715
379.726
384.021
383.227
377.318
366.764
352.312
334.535
315.065
294.891
274.732
255.185
236.624
219.275
203.248
188.566
175.193
163.052
152.049
142.077
133.031
124.809
117.316
110.467
104.187
98.4073
93.0706
88.1256
83.5281
79.2401
75.2286
71.4652
67.9256
64.5887
61.4362
58.4525
55.6238
52.9384
50.3861
47.9579
45.6462
43.4441
41.3458
39.346
37.4402
35.6245
33.8951
32.2489
30.6831
29.1951
27.7826
26.4436
25.176
23.9782
22.8483
21.7848
20.786
19.8502
18.9758
18.1611
17.4042
16.7033
16.0562
15.4609
14.9151
14.4163
13.9621
13.5497
13.1766
12.8401
12.5373
12.2655
12.0219
11.804
11.6091
11.4346
11.2782
11.1376
11.0107
10.8954
10.7899
10.6925
10.6016
10.5159
10.4342
10.3551
10.278
10.2018
10.1258
10.0496
9.97255
9.89435
9.8147
9.73341
9.65036
9.56549
9.47881
9.39039
9.30033
9.20877
9.11587
9.02183
8.92686
8.83118
8.735
8.63855
8.54204
8.44569
8.3497
8.25427
8.15956
8.06575
7.97298
7.88139
7.7911
7.70223
7.61488
7.52914
7.44509
7.36282
7.2824
7.20391
7.1274
7.05297
6.98068
6.91075
6.84317
6.77784
6.71469
6.65361
6.59451
6.53727
6.48177
6.4279
6.37552
6.32449
6.27467
6.22591
6.17806
6.13096
6.08442
6.03825
5.99223
5.94612
5.8997
5.85269
5.80485
5.75597
5.70594
5.65486
5.60319
5.55204
5.50323
491.941
164.41
121.991
115.872
119.116
125.593
133.187
141.042
148.842
156.539
164.219
172.035
180.169
188.815
198.168
208.419
219.757
232.358
246.388
261.988
279.274
298.315
319.099
341.439
364.886
387.904
409.127
426.995
439.92
446.586
446.427
439.206
425.82
407.651
386.049
362.421
337.947
313.57
289.996
267.704
246.98
227.955
210.646
194.993
180.888
168.199
156.782
146.496
137.207
128.794
121.146
114.168
107.775
101.895
96.4664
91.4349
86.7548
82.3868
78.2973
74.4574
70.8426
67.4314
64.2056
61.1492
58.2486
55.4919
52.8688
50.3701
47.9881
45.7158
43.5472
41.4769
39.5001
37.6127
35.811
34.0915
32.4514
30.8881
29.3991
27.9823
26.636
25.3583
24.1477
23.0028
21.9222
20.9045
19.9486
19.0532
18.2169
17.4383
16.7159
16.0482
15.4333
14.8693
14.3541
13.8856
13.4613
13.0786
12.7351
12.428
12.1546
11.912
11.6976
11.5086
11.3423
11.1962
11.0679
10.9549
10.8552
10.7666
10.6872
10.6152
10.5492
10.4875
10.429
10.3725
10.317
10.2617
10.2057
10.1486
10.0897
10.0288
9.96557
9.89976
9.83128
9.76006
9.68613
9.60954
9.53041
9.44887
9.36511
9.27931
9.19171
9.10251
9.01195
8.92028
8.82771
8.73448
8.64081
8.5469
8.45296
8.35919
8.26578
8.17288
8.08066
7.98929
7.8989
7.80962
7.72161
7.63499
7.54989
7.46646
7.38489
7.30543
7.22807
7.15279
7.07954
7.00826
6.93889
6.87133
6.80549
6.74126
6.67851
6.61709
6.55688
6.49771
6.43939
6.38175
6.32456
6.2676
6.21061
6.15333
6.09546
6.03675
5.97698
5.91602
5.854
5.79134
5.72915
5.66924
520.222
180.585
133.587
125.745
128.289
134.556
142.226
150.342
158.526
166.684
174.875
183.23
191.913
201.099
210.965
221.686
233.434
246.388
260.744
276.732
294.644
314.85
337.758
363.591
392.18
421.643
449.618
473.8
492.032
502.138
503.592
496.599
482.177
461.755
436.995
409.569
380.968
352.412
324.809
298.77
274.656
252.626
232.694
214.775
198.728
184.377
171.54
160.038
149.705
140.389
131.957
124.291
117.293
110.875
104.966
99.5018
94.43
89.7053
85.2893
81.1492
77.2568
73.588
70.122
66.8407
63.7287
60.7724
57.96
55.2812
52.727
50.2894
47.9615
45.7371
43.6106
41.5772
39.6326
37.7727
35.9942
34.294
32.6693
31.1176
29.6368
28.2248
26.8799
25.6006
24.3855
23.2333
22.1428
21.1131
20.1432
19.232
18.3786
17.582
16.841
16.1544
15.5208
14.9387
14.4063
13.9218
13.4829
13.0875
12.7331
12.4171
12.1369
11.8898
11.673
11.4838
11.3195
11.1773
11.0548
10.9495
10.8589
10.781
10.7135
10.6548
10.6029
10.5563
10.5135
10.4733
10.4345
10.3962
10.3574
10.3174
10.2758
10.2318
10.1852
10.1357
10.083
10.027
9.96768
9.90499
9.83899
9.76976
9.69743
9.62215
9.54412
9.46352
9.38056
9.29547
9.20848
9.1198
9.02967
8.93831
8.84596
8.75282
8.65912
8.56504
8.47079
8.37657
8.28256
8.18896
8.09597
8.00376
7.91246
7.82261
7.73434
7.64771
7.56276
7.47951
7.39796
7.31809
7.23983
7.16312
7.08787
7.01397
6.94129
6.86969
6.799
6.72905
6.65959
6.59041
6.52123
6.45179
6.3818
6.311
6.23916
6.1662
6.09223
6.01771
5.94374
5.87213
537.762
197.388
145.888
135.895
137.416
143.263
150.885
159.189
167.703
176.255
184.839
193.531
202.448
211.726
221.515
231.967
243.242
255.526
269.068
284.244
301.642
322.13
346.743
376.322
411.023
447.697
482.784
513.204
536.521
550.916
555.338
549.74
535.047
512.896
485.302
454.324
421.817
389.29
357.866
328.293
301.001
276.175
253.818
233.817
215.99
200.12
185.985
173.369
162.073
151.919
142.751
134.435
126.857
119.92
113.542
107.652
102.192
97.112
92.3699
87.9292
83.759
79.8326
76.127
72.6224
69.3013
66.1486
63.1513
60.2975
57.5772
54.9813
52.5019
50.1319
47.865
45.6956
43.6187
41.6298
39.7248
37.9003
36.1529
34.4797
32.8782
31.346
29.8811
28.4817
27.146
25.8726
24.6604
23.5082
22.415
21.38
20.4025
19.4816
18.6166
17.8069
17.0515
16.3496
15.7001
15.1018
14.5532
14.0529
13.5989
13.1892
12.8217
12.4939
12.2035
11.9476
11.7237
11.5291
11.361
11.2168
11.0939
10.9897
10.9018
10.8279
10.766
10.7139
10.6699
10.6323
10.5994
10.57
10.5427
10.5165
10.4904
10.4636
10.4354
10.4051
10.3723
10.3366
10.2977
10.2553
10.2093
10.1595
10.1061
10.0488
9.9879
9.92338
9.85538
9.78404
9.70952
9.63202
9.55172
9.46883
9.38358
9.29617
9.20681
9.11573
9.02315
8.92928
8.83436
8.73859
8.6422
8.5454
8.44838
8.35158
8.25542
8.1601
8.06576
7.97252
7.88047
7.78966
7.70012
7.61183
7.52477
7.43888
7.35407
7.27024
7.18724
7.10491
7.02304
6.94143
6.85982
6.77796
6.69558
6.61243
6.52832
6.44319
6.35721
6.27082
6.18517
6.10204
541.337
214.722
160.209
148.192
148.677
154.123
161.776
170.407
179.426
188.563
197.723
206.907
216.177
225.632
235.402
245.64
256.533
268.323
281.365
296.213
313.71
335.019
361.496
394.659
433.995
475.827
516.175
551.606
579.315
597.108
603.632
598.667
583.165
558.986
528.48
494.066
457.921
421.809
387.023
354.411
324.442
297.3
272.962
251.274
232.011
214.913
199.719
186.181
174.074
163.198
153.382
144.481
136.369
128.943
122.114
115.811
109.969
104.536
99.4678
94.7255
90.2762
86.0913
82.146
78.4186
74.8903
71.5443
68.3659
65.3423
62.4619
59.7147
57.0915
54.5843
52.186
49.8902
47.6912
45.5838
43.5635
41.6261
39.7679
37.9855
36.276
34.6367
33.0651
31.5591
30.1167
28.7364
27.4165
26.1557
24.953
23.8074
22.718
21.6841
20.7052
19.7806
18.9098
18.0923
17.3275
16.6147
15.9532
15.3419
14.7797
14.2654
13.7973
13.3736
12.9924
12.6515
12.3485
12.081
11.8464
11.6422
11.4656
11.314
11.1849
11.0758
10.9843
10.908
10.8448
10.7928
10.7499
10.7145
10.685
10.6599
10.6379
10.6179
10.5989
10.5798
10.56
10.5387
10.5154
10.4895
10.4606
10.4285
10.3929
10.3535
10.3103
10.2632
10.2121
10.157
10.0981
10.0353
9.96874
9.89861
9.82503
9.74816
9.66816
9.58522
9.49955
9.41134
9.3208
9.22816
9.13363
9.03743
8.93976
8.84081
8.74125
8.64143
8.54159
8.44196
8.34271
8.244
8.14594
8.04858
7.95199
7.85616
7.76107
7.66666
7.57285
7.47951
7.38649
7.29361
7.20065
7.1074
7.01363
6.91912
6.82375
6.7275
6.63058
6.53347
6.43729
6.34385
527.661
232.476
178.273
165.227
165.201
170.674
178.782
188.181
198.17
208.373
218.601
228.783
238.934
249.131
259.514
270.277
281.673
294.04
307.86
323.851
343.059
366.878
396.776
434.733
478.195
522.981
565.075
601.245
628.914
645.98
651.058
643.898
625.525
597.991
563.899
525.915
486.414
447.289
409.89
375.07
343.267
314.611
289.021
266.286
246.13
228.254
212.366
198.194
185.498
174.07
163.73
154.331
145.746
137.87
130.617
123.912
117.694
111.909
106.512
101.465
96.7328
92.2863
88.0993
84.1487
80.414
76.8771
73.5219
70.3339
67.3002
64.4095
61.6514
59.0167
56.4974
54.0861
51.7762
49.562
47.4382
45.4
43.4432
41.564
39.7591
38.0253
36.3599
34.7605
33.2247
31.7507
30.3367
28.9811
27.6827
26.4402
25.2527
24.1194