/*--------------------------------*- C++ -*----------------------------------*\
| =========                 |                                                 |
| \\      /  F ield         | OpenFOAM: The Open Source CFD Toolbox           |
|  \\    /   O peration     | Version:  2.2.x                                 |
|   \\  /    A nd           | Web:      www.OpenFOAM.org                      |
|    \\/     M anipulation  |                                                 |
\*---------------------------------------------------------------------------*/
FoamFile
{
    version     2.0;
    format      ascii;
    class       volScalarField;
    location    "50";
    object      k;
}
// * * * * * * * * * * * * * * * * * * * * * * * * * * * * * * * * * * * * * //

dimensions      [0 2 -2 0 0 0 0];

internalField   nonuniform List<scalar> 
12225
(
0.773245
1.11721
1.35386
1.50282
1.58981
1.63545
1.65442
1.65663
1.64857
1.63441
1.61678
1.59733
1.57709
1.55668
1.53639
1.51622
1.4956
1.47552
0.492814
0.515954
0.520187
0.519549
0.516287
0.511514
0.506194
0.501013
0.496389
0.492552
0.489594
0.487531
0.486361
0.486194
0.48763
0.492881
0.508979
0.551115
0.411968
0.424002
0.421748
0.414053
0.404107
0.393286
0.382324
0.371654
0.361537
0.35213
0.343527
0.335812
0.329188
0.324415
0.32432
0.338128
0.389086
0.513672
0.381859
0.385937
0.386331
0.383936
0.379737
0.374433
0.36849
0.362218
0.355836
0.349502
0.34337
0.337714
0.333342
0.333068
0.346332
0.398268
0.530144
0.772489
0.375243
0.375514
0.37492
0.373386
0.371061
0.368133
0.364777
0.361135
0.357331
0.353489
0.349833
0.346997
0.347163
0.357756
0.40006
0.514731
0.740594
1.08575
0.373472
0.3722
0.370871
0.369304
0.367463
0.365371
0.363074
0.360629
0.358107
0.355644
0.353627
0.353397
0.359595
0.386703
0.468502
0.651486
0.962039
1.39291
0.372985
0.371098
0.369336
0.367601
0.365836
0.364017
0.362144
0.360234
0.358345
0.356668
0.355875
0.358369
0.37221
0.419943
0.545043
0.793319
1.17901
1.68538
0.372871
0.370791
0.368849
0.367
0.365206
0.363444
0.361701
0.359988
0.358371
0.357109
0.357173
0.362016
0.382748
0.447888
0.606016
0.900568
1.33858
1.89956
0.372834
0.370681
0.368656
0.366739
0.36491
0.36315
0.361451
0.359819
0.358319
0.35722
0.357548
0.362961
0.385136
0.453619
0.618159
0.923785
1.38029
1.97013
0.372819
0.370638
0.368573
0.366617
0.364759
0.362988
0.361297
0.359693
0.358226
0.357125
0.357266
0.361812
0.381035
0.441803
0.59225
0.881898
1.33105
1.93162
0.372813
0.37062
0.368541
0.366567
0.364693
0.362911
0.361216
0.359612
0.358134
0.356942
0.356656
0.359564
0.373352
0.419542
0.541451
0.793167
1.21071
1.80205
0.372808
0.370612
0.368528
0.366548
0.364667
0.362879
0.361179
0.35957
0.358069
0.35677
0.356041
0.357272
0.365338
0.395163
0.481839
0.680588
1.04471
1.60444
0.372805
0.370608
0.368521
0.366539
0.364657
0.362867
0.361167
0.359554
0.358036
0.356659
0.355607
0.355596
0.359245
0.375367
0.428599
0.568971
0.863254
1.36811
0.372803
0.370604
0.368517
0.366535
0.364652
0.362864
0.361164
0.359551
0.358027
0.356609
0.355377
0.35465
0.355645
0.362819
0.390877
0.4785
0.696313
1.1262
0.372801
0.370601
0.368513
0.366531
0.36465
0.362863
0.361166
0.359556
0.358031
0.356598
0.355286
0.354225
0.353925
0.356406
0.369331
0.418168
0.565729
0.910002
0.372799
0.370598
0.36851
0.366528
0.364647
0.362862
0.361168
0.359561
0.358039
0.356602
0.355262
0.354069
0.353231
0.353641
0.359094
0.384763
0.47915
0.742188
0.372797
0.370595
0.368507
0.366526
0.364646
0.362862
0.36117
0.359566
0.358046
0.35661
0.355261
0.354018
0.35298
0.352587
0.354895
0.369245
0.431526
0.633798
0.372795
0.370593
0.368505
0.366524
0.364645
0.362863
0.361172
0.35957
0.358051
0.356614
0.355259
0.353999
0.352897
0.352266
0.353622
0.364249
0.414392
0.590014
0.372794
0.370592
0.368504
0.366524
0.364646
0.362865
0.361175
0.359573
0.358054
0.356615
0.355256
0.353987
0.352872
0.352218
0.353513
0.363846
0.412601
0.584069
0.372794
0.370592
0.368505
0.366525
0.364649
0.362868
0.36118
0.359578
0.358058
0.356617
0.355254
0.353982
0.352869
0.352247
0.353673
0.364306
0.412998
0.581372
0.372795
0.370593
0.368507
0.366529
0.364654
0.362876
0.36119
0.359589
0.35807
0.356628
0.355264
0.35399
0.352882
0.352282
0.353738
0.364061
0.409903
0.566469
0.372795
0.370596
0.368513
0.36654
0.36467
0.362899
0.361218
0.359624
0.358111
0.356674
0.355312
0.354039
0.35293
0.352312
0.353584
0.362642
0.402
0.536342
0.372798
0.370606
0.368536
0.366581
0.364732
0.362983
0.361325
0.359751
0.358252
0.356825
0.355466
0.354188
0.353058
0.352353
0.353204
0.360158
0.390295
0.49464
0.372814
0.370661
0.368653
0.366771
0.364999
0.363319
0.361715
0.360175
0.35869
0.357255
0.355867
0.354538
0.35332
0.352419
0.352627
0.356989
0.376854
0.448121
0.372908
0.370957
0.369197
0.367552
0.365968
0.364408
0.362853
0.361295
0.359733
0.358171
0.356618
0.355087
0.353618
0.352342
0.351722
0.353455
0.363844
0.404267
0.373466
0.372364
0.371366
0.370246
0.368921
0.367386
0.365671
0.363815
0.361858
0.359834
0.357773
0.355701
0.353654
0.351704
0.35007
0.349494
0.35268
0.369369
0.376461
0.378225
0.378826
0.37816
0.376536
0.374263
0.371565
0.368596
0.365463
0.362242
0.358985
0.355734
0.352522
0.34939
0.346423
0.343862
0.342533
0.345423
0.392626
0.401389
0.402234
0.399596
0.395392
0.390434
0.385113
0.379635
0.374122
0.368652
0.363282
0.358053
0.352995
0.348131
0.343486
0.339112
0.335172
0.332259
0.438255
0.449717
0.450719
0.449466
0.447693
0.445687
0.443534
0.441282
0.438969
0.436633
0.434312
0.432041
0.429844
0.427738
0.425722
0.423782
0.421888
0.420004
0.544745
0.705353
0.83643
0.946259
1.04228
1.12418
1.1925
1.24836
1.29314
1.32836
1.35546
1.3758
1.39056
1.40078
1.40735
1.41102
1.41243
1.41208
0.0864923
0.133725
0.162626
0.186526
0.207164
0.225471
0.241981
0.257028
0.270843
0.283592
0.295404
0.30638
0.316604
0.326142
0.335056
0.343397
0.351209
0.358532
0.365404
0.371857
0.377926
0.383641
0.389033
0.394133
0.398978
0.403608
0.408094
0.412051
0.415443
0.418259
0.420489
0.422129
0.423176
0.423629
0.423496
0.422788
0.421518
0.419707
0.417379
0.414558
0.411273
0.407557
0.403445
0.39897
0.394167
0.389073
0.38372
0.378138
0.372359
0.366409
0.360307
0.354066
0.347704
0.341239
0.334682
0.328038
0.321405
0.314973
0.30887
0.303077
0.297304
0.29176
0.287312
0.284363
0.281987
0.279799
0.277708
0.275698
0.273767
0.271912
0.270136
0.268437
0.266817
0.265274
0.263809
0.26242
0.261106
0.259871
0.258715
0.257641
0.256646
0.255731
0.254899
0.254151
0.253488
0.252908
0.252411
0.251999
0.251672
0.251432
0.251278
0.25121
0.251228
0.251331
0.25152
0.251793
0.25215
0.252589
0.253111
0.253714
0.254397
0.255158
0.255995
0.256906
0.257889
0.258941
0.260058
0.261238
0.262477
0.263772
0.26512
0.266515
0.267955
0.269435
0.270951
0.272498
0.274072
0.275668
0.277282
0.278908
0.280542
0.282179
0.283816
0.285447
0.287068
0.288676
0.290265
0.291832
0.293374
0.294888
0.296369
0.297816
0.299226
0.300596
0.301924
0.303209
0.304449
0.305642
0.306787
0.307883
0.30893
0.309926
0.310869
0.311753
0.31258
0.313353
0.314074
0.314746
0.315369
0.315946
0.316479
0.316968
0.317414
0.317818
0.318181
0.318504
0.318788
0.319033
0.319239
0.319407
0.319537
0.319627
0.319676
0.319685
0.31965
0.31957
0.319441
0.319256
0.31901
0.31869
0.318285
0.317777
0.317138
0.316335
0.315317
0.314008
0.312296
0.309986
0.306805
0.301193
0.124411
0.190101
0.240549
0.279457
0.311619
0.339451
0.364174
0.386533
0.407019
0.425968
0.443623
0.460165
0.475747
0.490499
0.504539
0.517974
0.530904
0.543415
0.555586
0.567486
0.579165
0.590651
0.601955
0.613063
0.62395
0.63458
0.644898
0.654866
0.664431
0.673518
0.682047
0.689934
0.697103
0.703489
0.709035
0.7137
0.717462
0.720312
0.722259
0.723321
0.723529
0.722921
0.721537
0.719418
0.716611
0.713157
0.709101
0.704487
0.699363
0.693779
0.687777
0.681387
0.674625
0.667522
0.660097
0.652292
0.644045
0.635177
0.625941
0.616935
0.607835
0.598231
0.588498
0.578756
0.569026
0.559329
0.549689
0.540129
0.530672
0.521337
0.512136
0.503079
0.494173
0.485422
0.47683
0.4684
0.460134
0.452032
0.444093
0.43632
0.428713
0.421272
0.413994
0.40688
0.399929
0.39314
0.386512
0.380045
0.373736
0.367583
0.361584
0.355738
0.350045
0.344501
0.339104
0.333854
0.328746
0.323779
0.31895
0.314257
0.309698
0.305269
0.300969
0.296794
0.292744
0.288815
0.285005
0.281311
0.277732
0.274264
0.270906
0.267655
0.264508
0.261464
0.25852
0.255675
0.252925
0.250269
0.247706
0.245233
0.242848
0.24055
0.238337
0.236206
0.234157
0.232187
0.230296
0.228481
0.226742
0.225078
0.223486
0.221966
0.220516
0.219136
0.217824
0.216579
0.215399
0.214283
0.213228
0.212233
0.211294
0.210408
0.20957
0.208776
0.208024
0.207306
0.206621
0.205963
0.205332
0.20473
0.204155
0.203608
0.20309
0.202601
0.20214
0.201707
0.201302
0.200925
0.200575
0.200252
0.199957
0.199689
0.199448
0.199236
0.19905
0.198893
0.198764
0.198663
0.198592
0.198552
0.198544
0.198574
0.198644
0.198767
0.198959
0.199255
0.199733
0.200591
0.202436
0.208385
0.154174
0.227413
0.292625
0.344138
0.386983
0.423668
0.455638
0.483811
0.50884
0.531206
0.551284
0.569392
0.585808
0.600791
0.614591
0.627442
0.639566
0.651171
0.662438
0.673526
0.684559
0.69563
0.706789
0.718053
0.729405
0.740792
0.752143
0.763356
0.774292
0.78481
0.794776
0.804056
0.812527
0.820079
0.826624
0.832094
0.836447
0.839663
0.841741
0.842697
0.84256
0.841371
0.839173
0.836016
0.831952
0.827043
0.821355
0.814954
0.807903
0.800253
0.792042
0.783267
0.773875
0.763753
0.752806
0.740956
0.728709
0.716174
0.703583
0.691147
0.678955
0.666983
0.655204
0.643578
0.632063
0.620641
0.609311
0.598084
0.586977
0.576003
0.565176
0.554508
0.544007
0.53368
0.523532
0.513566
0.503788
0.494198
0.484795
0.475582
0.466559
0.457725
0.449081
0.440625
0.432355
0.424272
0.416375
0.408662
0.401131
0.39378
0.386607
0.37961
0.372787
0.366135
0.359652
0.353336
0.347183
0.341192
0.33536
0.329683
0.324159
0.318784
0.313557
0.308473
0.303529
0.298723
0.294052
0.289511
0.2851
0.280814
0.27665
0.272606
0.268679
0.264865
0.261162
0.257566
0.254076
0.250688
0.247399
0.244208
0.24111
0.238105
0.235188
0.232359
0.229614
0.226952
0.22437
0.221867
0.219439
0.217087
0.214807
0.212599
0.21046
0.208389
0.206385
0.204445
0.202568
0.200753
0.198999
0.197303
0.195665
0.194083
0.192556
0.191081
0.189656
0.188278
0.186944
0.185652
0.1844
0.183185
0.182008
0.180867
0.17976
0.178688
0.177649
0.176643
0.17567
0.174728
0.173818
0.172939
0.172091
0.171275
0.170491
0.169739
0.169019
0.168332
0.16768
0.167063
0.166485
0.165946
0.165452
0.16501
0.164628
0.164324
0.164124
0.164078
0.164286
0.164958
0.166549
0.170705
0.180513
0.255231
0.330491
0.391475
0.442817
0.486701
0.524567
0.557407
0.585973
0.610862
0.632561
0.651496
0.668056
0.682607
0.695502
0.707085
0.717683
0.727603
0.737127
0.746502
0.75593
0.765568
0.77552
0.785839
0.796525
0.807534
0.818773
0.830021
0.841026
0.85159
0.861526
0.87066
0.878835
0.885922
0.891819
0.896451
0.899777
0.901784
0.902482
0.901894
0.900059
0.897028
0.892851
0.887587
0.881302
0.87407
0.86597
0.857079
0.847464
0.837163
0.826159
0.814379
0.801757
0.788292
0.774516
0.760572
0.746617
0.73274
0.71903
0.705562
0.692382
0.679496
0.666879
0.654499
0.642322
0.630325
0.618499
0.606841
0.595355
0.584045
0.572917
0.561976
0.551226
0.540671
0.530311
0.520149
0.510186
0.500421
0.490853
0.481483
0.472309
0.46333
0.454547
0.445956
0.437556
0.429347
0.421327
0.413494
0.405847
0.398383
0.391101
0.384
0.377076
0.370328
0.363754
0.357351
0.351117
0.34505
0.339147
0.333404
0.327821
0.322394
0.317119
0.311995
0.307018
0.302185
0.297492
0.292937
0.288517
0.284228
0.280066
0.27603
0.272115
0.268318
0.264635
0.261065
0.257602
0.254245
0.25099
0.247833
0.244772
0.241803
0.238924
0.236131
0.233423
0.230795
0.228245
0.225771
0.223371
0.221041
0.21878
0.216585
0.214455
0.212387
0.210378
0.208428
0.206533
0.204693
0.202906
0.201169
0.199482
0.197842
0.196248
0.194698
0.19319
0.191723
0.190295
0.188904
0.187546
0.186222
0.184929
0.183669
0.18244
0.181239
0.180065
0.178918
0.177796
0.176699
0.175625
0.174576
0.173548
0.172544
0.171562
0.170603
0.169666
0.168752
0.16786
0.166991
0.166147
0.165327
0.164534
0.16377
0.163041
0.162356
0.161731
0.161197
0.160818
0.160721
0.161144
0.162867
0.204926
0.281407
0.365389
0.434671
0.493756
0.544522
0.588282
0.626028
0.658558
0.68654
0.710541
0.731065
0.748569
0.76349
0.776247
0.787248
0.796897
0.80558
0.813661
0.821473
0.829305
0.837388
0.845889
0.85491
0.864484
0.874576
0.885092
0.895706
0.90604
0.915818
0.924798
0.932768
0.939544
0.944982
0.948981
0.951477
0.952448
0.951902
0.949874
0.946417
0.941593
0.935473
0.92813
0.919647
0.910113
0.899624
0.888273
0.876139
0.86329
0.849732
0.835334
0.820124
0.804574
0.788968
0.773464
0.75815
0.743089
0.728326
0.713893
0.699814
0.686103
0.672754
0.659749
0.647062
0.634667
0.622543
0.610674
0.599049
0.587662
0.576507
0.565582
0.554883
0.544407
0.534151
0.524113
0.514289
0.504674
0.495265
0.48606
0.477054
0.468245
0.459628
0.451202
0.442963
0.434909
0.427037
0.419345
0.411831
0.404492
0.397328
0.390335
0.383513
0.376859
0.370372
0.36405
0.357891
0.351893
0.346055
0.340375
0.33485
0.329479
0.324259
0.319188
0.314264
0.309484
0.304846
0.300346
0.295983
0.291753
0.287653
0.28368
0.279831
0.276104
0.272494
0.268998
0.265614
0.262338
0.259166
0.256095
0.253122
0.250244
0.247458
0.244759
0.242145
0.239614
0.237161
0.234784
0.232481
0.230248
0.228082
0.225982
0.223944
0.221967
0.220047
0.218182
0.216371
0.214611
0.212899
0.211235
0.209616
0.20804
0.206506
0.205011
0.203555
0.202135
0.200749
0.199396
0.198074
0.196782
0.195518
0.19428
0.193069
0.191884
0.190722
0.189583
0.188465
0.187367
0.186287
0.185226
0.184182
0.183154
0.182142
0.181145
0.180164
0.179196
0.178243
0.177303
0.176375
0.17546
0.174555
0.173662
0.172778
0.171904
0.171042
0.170197
0.169379
0.168619
0.167976
0.167556
0.167728
0.229036
0.310721
0.404199
0.481995
0.548984
0.606969
0.657125
0.700382
0.737551
0.769349
0.796411
0.819302
0.838538
0.854595
0.867937
0.879024
0.888312
0.89626
0.90332
0.909916
0.916433
0.923196
0.930452
0.938359
0.946985
0.956306
0.966218
0.976254
0.98588
0.994722
1.00246
1.00884
1.01365
1.01673
1.018
1.01742
1.01501
1.01084
1.00497
0.997505
0.988554
0.978227
0.966637
0.953904
0.940153
0.925507
0.910072
0.893929
0.877125
0.859628
0.84143
0.823257
0.805301
0.787664
0.770411
0.753587
0.73722
0.721326
0.705914
0.690984
0.676535
0.662552
0.649015
0.635902
0.623189
0.610855
0.598879
0.587243
0.575935
0.564939
0.554245
0.543839
0.533713
0.523854
0.514254
0.504902
0.495788
0.486903
0.478238
0.469786
0.461537
0.453486
0.445624
0.437946
0.430447
0.423121
0.415963
0.40897
0.402138
0.395464
0.388945
0.382578
0.376361
0.370293
0.364371
0.358594
0.352961
0.34747
0.34212
0.336909
0.331838
0.326903
0.322104
0.317439
0.312906
0.308504
0.304232
0.300087
0.296067
0.292169
0.288393
0.284734
0.281192
0.277762
0.274443
0.271231
0.268123
0.265118
0.26221
0.259399
0.25668
0.25405
0.251506
0.249046
0.246666
0.244363
0.242135
0.239978
0.237889
0.235867
0.233907
0.232009
0.230168
0.228382
0.22665
0.224968
0.223335
0.221748
0.220205
0.218704
0.217244
0.215822
0.214436
0.213085
0.211767
0.21048
0.209223
0.207994
0.206792
0.205615
0.204461
0.203332
0.202225
0.201138
0.200071
0.199022
0.19799
0.196973
0.195971
0.194982
0.194005
0.193041
0.192088
0.191145
0.190211
0.189286
0.188368
0.187455
0.186547
0.185641
0.184735
0.183826
0.18291
0.181984
0.181046
0.180096
0.179139
0.178199
0.17732
0.176689
0.254156
0.345982
0.450688
0.537861
0.613256
0.678832
0.735695
0.784732
0.826767
0.862583
0.892897
0.918353
0.939533
0.956973
0.971189
0.982694
0.992017
0.999701
1.0063
1.01235
1.01835
1.02473
1.03181
1.0398
1.04876
1.05865
1.06929
1.07989
1.08974
1.09832
1.10523
1.11012
1.11278
1.11309
1.11099
1.10653
1.09981
1.09096
1.08014
1.06752
1.05329
1.03761
1.02068
1.00265
0.983687
0.963942
0.943524
0.922462
0.900827
0.878919
0.857265
0.836065
0.815395
0.795301
0.775812
0.756948
0.738717
0.721121
0.704156
0.687814
0.672082
0.656943
0.642375
0.628358
0.614867
0.601881
0.589376
0.577333
0.565731
0.55455
0.543772
0.53338
0.523354
0.513678
0.504334
0.495304
0.486573
0.478124
0.469941
0.462008
0.454312
0.446839
0.439576
0.432511
0.425633
0.418932
0.4124
0.406027
0.399806
0.393732
0.387797
0.381998
0.37633
0.370789
0.365372
0.360077
0.354902
0.349845
0.344904
0.340079
0.335369
0.330773
0.326289
0.321918
0.317659
0.313512
0.309475
0.305548
0.30173
0.29802
0.294417
0.29092
0.287527
0.284237
0.281048
0.277959
0.274966
0.272069
0.269266
0.266552
0.263928
0.261389
0.258934
0.25656
0.254264
0.252043
0.249896
0.247819
0.245811
0.243867
0.241986
0.240166
0.238403
0.236695
0.23504
0.233436
0.23188
0.23037
0.228904
0.22748
0.226095
0.224748
0.223437
0.22216
0.220916
0.219702
0.218517
0.21736
0.216229
0.215122
0.21404
0.212981
0.211943
0.210926
0.209927
0.208945
0.207978
0.207025
0.206086
0.205158
0.204241
0.203334
0.202436
0.201545
0.20066
0.199781
0.198905
0.19803
0.197155
0.196275
0.195389
0.19449
0.193574
0.192634
0.191664
0.190655
0.189605
0.188518
0.187413
0.186401
0.281134
0.388345
0.506067
0.603474
0.687621
0.760827
0.824225
0.878722
0.925215
0.964602
0.997729
1.02537
1.04822
1.0669
1.08203
1.09421
1.10409
1.11232
1.11959
1.12657
1.13386
1.14196
1.15124
1.16186
1.17383
1.18691
1.20076
1.21391
1.22549
1.23481
1.24138
1.24483
1.24499
1.24181
1.23537
1.22585
1.21348
1.19855
1.18134
1.16215
1.14126
1.11893
1.09542
1.07096
1.04572
1.01986
0.99348
0.966612
0.940085
0.914106
0.888801
0.864232
0.84043
0.817411
0.795184
0.773748
0.753098
0.733225
0.714117
0.695758
0.678131
0.661217
0.644996
0.629446
0.614547
0.600278
0.586617
0.573544
0.561038
0.549079
0.537646
0.526718
0.516274
0.506292
0.496751
0.487627
0.478898
0.470543
0.462539
0.454862
0.447493
0.440409
0.433591
0.427018
0.420674
0.414539
0.4086
0.402839
0.397244
0.391801
0.386501
0.381332
0.376286
0.371355
0.366533
0.361813
0.357192
0.352665
0.348229
0.343882
0.339622
0.335447
0.331356
0.327349
0.323426
0.319587
0.315831
0.31216
0.308573
0.30507
0.301651
0.298318
0.29507
0.291906
0.288827
0.285833
0.282922
0.280094
0.277349
0.274685
0.272101
0.269596
0.267168
0.264817
0.26254
0.260335
0.258201
0.256136
0.254138
0.252205
0.250334
0.248524
0.246772
0.245076
0.243435
0.241845
0.240305
0.238813
0.237366
0.235963
0.2346
0.233278
0.231992
0.230743
0.229527
0.228343
0.227191
0.226067
0.224972
0.223903
0.222861
0.221843
0.220848
0.219874
0.218921
0.217984
0.217064
0.216159
0.215267
0.214386
0.213516
0.212656
0.211803
0.210956
0.210115
0.209276
0.208439
0.2076
0.206757
0.205907
0.205043
0.204162
0.203257
0.202319
0.201338
0.200305
0.199212
0.198056
0.196848
0.195668
0.310289
0.437447
0.569413
0.6775
0.770345
0.850748
0.920002
0.97913
1.02918
1.07126
1.1064
1.13558
1.15968
1.17949
1.19578
1.20931
1.22087
1.23129
1.24139
1.25195
1.26362
1.2769
1.29204
1.30904
1.32762
1.34719
1.36699
1.38459
1.39904
1.40959
1.41568
1.41702
1.41355
1.4054
1.39288
1.3764
1.35642
1.33344
1.30795
1.28038
1.25116
1.22068
1.18919
1.15708
1.12439
1.09129
1.05869
1.02678
0.995749
0.965662
0.936551
0.908427
0.881284
0.855114
0.829899
0.805621
0.782259
0.759789
0.73819
0.717437
0.697508
0.678383
0.660039
0.642456
0.625617
0.609502
0.594095
0.579379
0.565337
0.551952
0.539207
0.527085
0.515566
0.50463
0.494257
0.484425
0.475109
0.466287
0.457932
0.450019
0.442521
0.435411
0.428664
0.422253
0.416152
0.410335
0.404779
0.39946
0.394356
0.389446
0.384712
0.380135
0.375699
0.37139
0.367195
0.363101
0.359099
0.355181
0.351337
0.347563
0.343853
0.340203
0.33661
0.333072
0.329587
0.326155
0.322775
0.319447
0.316171
0.312949
0.309782
0.30667
0.303615
0.300618
0.297681
0.294804
0.291989
0.289237
0.286548
0.283924
0.281365
0.278871
0.276443
0.27408
0.271783
0.269551
0.267383
0.265279
0.263239
0.26126
0.259342
0.257483
0.255683
0.253939
0.25225
0.250614
0.249029
0.247494
0.246007
0.244566
0.243168
0.241813
0.240498
0.239222
0.237983
0.236779
0.235609
0.234472
0.233367
0.232292
0.231246
0.230228
0.229237
0.228271
0.227327
0.226403
0.225498
0.224609
0.223735
0.222875
0.222025
0.221186
0.220355
0.21953
0.21871
0.217893
0.217075
0.216254
0.215427
0.214589
0.213735
0.21286
0.211955
0.211012
0.210019
0.208967
0.207845
0.20665
0.205394
0.204143
0.341341
0.49159
0.638186
0.756764
0.857742
0.944503
1.01859
1.08125
1.1338
1.17761
1.21401
1.24427
1.2695
1.29076
1.30903
1.3253
1.34053
1.35573
1.37179
1.38954
1.40955
1.43216
1.45732
1.48466
1.51347
1.54279
1.56983
1.59278
1.61039
1.62183
1.62656
1.6244
1.61549
1.60026
1.57933
1.55345
1.52341
1.49001
1.45402
1.41601
1.37663
1.33643
1.29534
1.25436
1.21414
1.1749
1.13686
1.10008
1.06459
1.0304
0.997487
0.96582
0.935359
0.906062
0.877887
0.850788
0.824723
0.799651
0.775534
0.752338
0.730031
0.708584
0.68797
0.668168
0.649159
0.630926
0.613453
0.596728
0.580739
0.565474
0.550922
0.537073
0.523914
0.511432
0.499613
0.488442
0.4779
0.467969
0.458627
0.449851
0.441616
0.433895
0.426662
0.419886
0.413538
0.407588
0.402006
0.39676
0.391822
0.387163
0.382754
0.378569
0.374583
0.370773
0.367115
0.363591
0.360181
0.35687
0.353642
0.350485
0.347388
0.344341
0.341336
0.338366
0.335428
0.332516
0.329627
0.326761
0.323915
0.321089
0.318284
0.315501
0.312741
0.310006
0.307299
0.30462
0.301972
0.299359
0.296781
0.294243
0.291746
0.289292
0.286883
0.284522
0.282209
0.279947
0.277737
0.275579
0.273475
0.271424
0.269428
0.267486
0.265598
0.263764
0.261982
0.260253
0.258574
0.256946
0.255366
0.253834
0.252347
0.250905
0.249506
0.248148
0.246831
0.245553
0.244312
0.243109
0.241941
0.240807
0.239707
0.23864
0.237605
0.236599
0.235619
0.234663
0.23373
0.232816
0.23192
0.231039
0.230173
0.229318
0.228473
0.227635
0.226803
0.225972
0.225142
0.224308
0.223466
0.222612
0.221741
0.220844
0.219914
0.218942
0.217917
0.216828
0.215668
0.214433
0.213137
0.211843
0.37338
0.547999
0.708635
0.836859
0.944956
1.03696
1.11476
1.17992
1.23407
1.27893
1.3162
1.34748
1.37424
1.39782
1.41947
1.4404
1.46176
1.48463
1.50994
1.53837
1.57031
1.6057
1.64407
1.68451
1.72569
1.76606
1.80138
1.83007
1.85084
1.86274
1.86524
1.85825
1.84216
1.81774
1.78604
1.74832
1.70575
1.65949
1.61092
1.56038
1.50886
1.45792
1.40797
1.35942
1.31248
1.26729
1.22386
1.18221
1.1423
1.10406
1.06743
1.03234
0.998693
0.966427
0.93546
0.90572
0.877138
0.84965
0.823201
0.797739
0.773218
0.749598
0.726845
0.70493
0.683828
0.663518
0.643984
0.625214
0.607196
0.589921
0.573384
0.557578
0.542498
0.528137
0.514491
0.501552
0.489313
0.477763
0.466891
0.456683
0.447121
0.438188
0.42986
0.422116
0.414926
0.408264
0.402099
0.396398
0.39113
0.38626
0.381756
0.377582
0.373706
0.370097
0.366722
0.363552
0.36056
0.357719
0.355006
0.352398
0.349876
0.347423
0.345022
0.342661
0.340327
0.338011
0.335705
0.333402
0.331097
0.328787
0.326469
0.324142
0.321806
0.319461
0.317109
0.314751
0.312389
0.310028
0.307668
0.305315
0.302972
0.300641
0.298328
0.296034
0.293765
0.291523
0.289311
0.287133
0.28499
0.282886
0.280822
0.2788
0.276821
0.274887
0.272998
0.271155
0.269358
0.267607
0.265902
0.264242
0.262627
0.261056
0.259528
0.258043
0.2566
0.255198
0.253835
0.252513
0.251229
0.249984
0.248776
0.247605
0.246471
0.245372
0.244303
0.243264
0.242251
0.241262
0.240294
0.239346
0.238414
0.237497
0.236592
0.235696
0.234807
0.233922
0.233037
0.232148
0.231251
0.230341
0.229411
0.228454
0.227463
0.226426
0.225335
0.224178
0.22295
0.22165
0.220296
0.218948
0.404833
0.603113
0.776303
0.912751
1.02666
1.12274
1.20329
1.27019
1.32545
1.37115
1.40937
1.44209
1.4711
1.49806
1.52448
1.55174
1.58107
1.61357
1.65005
1.69099
1.73645
1.78601
1.83875
1.89323
1.94744
1.99899
2.04316
2.07843
2.1032
2.1162
2.11672
2.10466
2.08059
2.04571
2.00149
1.95012
1.89311
1.83166
1.76895
1.70616
1.64425
1.58394
1.52565
1.46962
1.41598
1.36476
1.31593
1.26942
1.22511
1.18291
1.14268
1.10429
1.06764
1.03259
0.999033
0.966868
0.935997
0.906332
0.877795
0.850316
0.823833
0.798294
0.773652
0.749868
0.726909
0.704748
0.683362
0.662736
0.642855
0.623709
0.60529
0.587594
0.570619
0.55436
0.538819
0.523994
0.509885
0.49649
0.483807
0.471833
0.460562
0.449986
0.440096
0.430878
0.422316
0.414389
0.407077
0.400353
0.394189
0.388555
0.383418
0.378741
0.374491
0.37063
0.36712
0.363927
0.361012
0.358343
0.355885
0.353607
0.351481
0.349477
0.347572
0.345742
0.343968
0.342231
0.340515
0.338808
0.337096
0.335372
0.333627
0.331856
0.330054
0.328218
0.326347
0.32444
0.322498
0.320522
0.318514
0.316479
0.314418
0.312336
0.310238
0.308127
0.306008
0.303887
0.301767
0.299652
0.297548
0.295458
0.293386
0.291336
0.289311
0.287313
0.285345
0.283409
0.281508
0.279641
0.277811
0.276019
0.274264
0.272548
0.270871
0.269232
0.267633
0.266073
0.264553
0.263071
0.261629
0.260226
0.258862
0.257537
0.256253
0.255007
0.253797
0.25262
0.251474
0.250356
0.249264
0.248194
0.247145
0.246114
0.245098
0.244094
0.243098
0.242107
0.241118
0.240126
0.239126
0.238113
0.237079
0.236017
0.234919
0.233774
0.232574
0.231308
0.229973
0.228572
0.227125
0.225692
0.433604
0.653061
0.83663
0.979578
1.09792
1.19709
1.27975
1.34812
1.40449
1.45126
1.49085
1.52554
1.55742
1.58837
1.62007
1.65396
1.69131
1.73308
1.77996
1.83224
1.88977
1.95195
2.01765
2.08518
2.1522
2.21435
2.26861
2.31267
2.34409
2.36082
2.36161
2.34603
2.31484
2.26975
2.2121
2.14631
2.07542
2.00173
1.92732
1.85361
1.78165
1.71213
1.64548
1.58192
1.52153
1.46428
1.41006
1.35874
1.31015
1.2641
1.22041
1.17891
1.13941
1.10177
1.06583
1.03144
0.998498
0.966877
0.93648
0.907219
0.879017
0.851805
0.825527
0.800131
0.775577
0.751828
0.728856
0.706638
0.685153
0.664389
0.644333
0.624979
0.606321
0.588356
0.571084
0.554505
0.53862
0.523434
0.508949
0.495167
0.482092
0.469725
0.458067
0.447115
0.436866
0.427312
0.418445
0.410251
0.402713
0.39581
0.389519
0.383811
0.378656
0.37402
0.369867
0.36616
0.362859
0.359926
0.357321
0.355006
0.352943
0.351095
0.349428
0.347911
0.346512
0.345205
0.343964
0.342767
0.341595
0.340429
0.339255
0.33806
0.336833
0.335565
0.334251
0.332885
0.331464
0.329986
0.32845
0.326858
0.325211
0.323512
0.321763
0.319969
0.318135
0.316264
0.314363
0.312435
0.310487
0.308523
0.306549
0.304569
0.302587
0.300608
0.298637
0.296676
0.294729
0.292799
0.290888
0.288999
0.287134
0.285295
0.283484
0.281701
0.279949
0.278228
0.276539
0.274884
0.273263
0.271677
0.270127
0.268614
0.267141
0.265708
0.264313
0.262954
0.261628
0.260333
0.259068
0.257828
0.256612
0.255417
0.254239
0.253076
0.251923
0.250778
0.249636
0.248492
0.24734
0.246175
0.24499
0.243776
0.242524
0.241226
0.239872
0.238455
0.236972
0.235429
0.233849
0.232291
0.457231
0.694236
0.885863
1.03367
1.15534
1.257
1.34164
1.41169
1.46964
1.51807
1.55957
1.59659
1.63138
1.66593
1.70194
1.74084
1.7838
1.83168
1.88506
1.94422
2.00908
2.07923
2.15382
2.23131
2.30933
2.38305
2.44986
2.50649
2.54912
2.57413
2.5794
2.56346
2.52768
2.47525
2.40955
2.33439
2.25318
2.16881
2.08367
1.99957
1.9178
1.83922
1.76432
1.69334
1.62632
1.56318
1.50375
1.44781
1.39512
1.34543
1.29849
1.25407
1.21195
1.17192
1.1338
1.0974
1.06258
1.02921
0.997157
0.96632
0.936606
0.907935
0.880236
0.853451
0.827529
0.802427
0.778108
0.754543
0.731708
0.709583
0.688152
0.667403
0.647327
0.627918
0.609172
0.591088
0.573665
0.556905
0.540813
0.525392
0.510647
0.496586
0.483213
0.470533
0.458551
0.447271
0.436693
0.426817
0.417639
0.409152
0.401344
0.394202
0.387705
0.381833
0.376555
0.371844
0.367663
0.363978
0.360748
0.357935
0.355495
0.35339
0.351577
0.350018
0.348675
0.347511
0.346492
0.345586
0.344765
0.344003
0.343275
0.34256
0.34184
0.3411
0.340324
0.339503
0.338628
0.33769
0.336686
0.335611
0.334465
0.333245
0.331953
0.330591
0.329161
0.327667
0.326112
0.324501
0.322838
0.321129
0.319379
0.317593
0.315776
0.313932
0.312068
0.310187
0.308294
0.306393
0.304487
0.302581
0.300677
0.29878
0.296891
0.295014
0.293151
0.291304
0.289476
0.287668
0.285884
0.284124
0.28239
0.280686
0.279013
0.277376
0.275775
0.274208
0.272674
0.271172
0.269699
0.268254
0.266834
0.265436
0.264057
0.262694
0.261344
0.260003
0.258665
0.257327
0.255981
0.254623
0.253244
0.251837
0.250392
0.248901
0.247356
0.24575
0.244083
0.242362
0.240614
0.238897
0.473906
0.723721
0.921851
1.07373
1.19834
1.30254
1.38965
1.46218
1.52264
1.57358
1.61758
1.65707
1.69428
1.73115
1.76933
1.81013
1.85461
1.90355
1.95754
2.01699
2.08226
2.15372
2.23154
2.31507
2.4022
2.48848
2.56991
2.64231
2.70085
2.73931
2.75479
2.746
2.71408
2.6617
2.59268
2.51137
2.42202
2.32836
2.23348
2.13971
2.04871
1.96155
1.87884
1.80085
1.72761
1.65897
1.59469
1.53448
1.47803
1.42502
1.37514
1.32809
1.2836
1.24143
1.20135
1.16316
1.12668
1.09175
1.05824
1.02602
0.994982
0.965037
0.936107
0.908122
0.881025
0.854766
0.829303
0.804602
0.780631
0.757367
0.73479
0.712883
0.691633
0.67103
0.651066
0.631736
0.613037
0.594968
0.577529
0.560724
0.544555
0.529029
0.514151
0.499928
0.486368
0.473479
0.461267
0.449739
0.438901
0.428755
0.419304
0.410545
0.402473
0.395078
0.388347
0.382262
0.3768
0.371934
0.367635
0.363867
0.360594
0.357776
0.355372
0.353341
0.351641
0.35023
0.349068
0.348116
0.347338
0.346698
0.346166
0.345711
0.345306
0.344928
0.344556
0.34417
0.343756
0.343299
0.342788
0.342214
0.341569
0.34085
0.340052
0.339173
0.338213
0.337171
0.336049
0.33485
0.333575
0.33223
0.330817
0.329341
0.327806
0.326218
0.32458
0.322897
0.321174
0.319415
0.317625
0.315808
0.313968
0.312108
0.310234
0.308348
0.306453
0.304554
0.302654
0.300755
0.29886
0.296973
0.295097
0.293234
0.291387
0.289565
0.287769
0.286001
0.284261
0.282548
0.28086
0.279198
0.27756
0.275942
0.274343
0.27276
0.271189
0.269626
0.268068
0.266509
0.264944
0.263365
0.261766
0.260138
0.258474
0.256765
0.255003
0.253185
0.25131
0.24939
0.247452
0.245553
0.48381
0.7428
0.946705
1.10289
1.23116
1.33895
1.42982
1.50629
1.5707
1.62543
1.67279
1.71504
1.75421
1.79212
1.83029
1.86997
1.91214
1.95757
2.00694
2.06107
2.1211
2.1886
2.2651
2.35091
2.44459
2.54112
2.63576
2.72384
2.79986
2.85747
2.89079
2.89638
2.87392
2.8259
2.75673
2.6717
2.57612
2.47473
2.37142
2.26913
2.16993
2.07514
1.9855
1.90132
1.8226
1.74914
1.68064
1.61674
1.55704
1.50116
1.44874
1.39942
1.35289
1.30887
1.26711
1.22737
1.18945
1.15319
1.11841
1.08499
1.05282
1.02178
0.991795
0.962787
0.934692
0.907455
0.881028
0.855373
0.830454
0.806244
0.782719
0.759858
0.737644
0.716064
0.695107
0.674764
0.655028
0.635896
0.617363
0.599431
0.582099
0.56537
0.549248
0.533738
0.518845
0.504579
0.490947
0.477956
0.465618
0.453939
0.442927
0.43259