/*--------------------------------*- C++ -*----------------------------------*\
| =========                 |                                                 |
| \\      /  F ield         | OpenFOAM: The Open Source CFD Toolbox           |
|  \\    /   O peration     | Version:  2.2.x                                 |
|   \\  /    A nd           | Web:      www.OpenFOAM.org                      |
|    \\/     M anipulation  |                                                 |
\*---------------------------------------------------------------------------*/
FoamFile
{
    version     2.0;
    format      ascii;
    class       volScalarField;
    location    "50";
    object      nut;
}
// * * * * * * * * * * * * * * * * * * * * * * * * * * * * * * * * * * * * * //

dimensions      [0 2 -1 0 0 0 0];

internalField   nonuniform List<scalar> 
12225
(
3.09427e-05
3.71934e-05
4.09436e-05
4.31373e-05
4.43686e-05
4.50014e-05
4.5262e-05
4.52928e-05
4.51829e-05
4.49886e-05
4.47448e-05
4.44732e-05
4.41872e-05
4.38949e-05
4.36017e-05
4.3309e-05
4.30071e-05
4.26872e-05
0.000116565
6.93144e-05
5.1547e-05
4.23557e-05
3.70952e-05
3.3863e-05
3.17716e-05
3.03735e-05
2.94244e-05
2.8782e-05
2.83578e-05
2.80948e-05
2.79568e-05
2.7929e-05
2.80406e-05
2.8446e-05
2.96615e-05
3.296e-05
0.000364934
0.000222932
0.000162047
0.000127414
0.000105453
9.05678e-05
7.99304e-05
7.20016e-05
6.58913e-05
6.10572e-05
5.71561e-05
5.3973e-05
5.14067e-05
4.95479e-05
4.90321e-05
5.21566e-05
6.53787e-05
0.000101314
0.000644459
0.000478653
0.000377983
0.000312427
0.000267012
0.000234105
0.000209346
0.000190114
0.000174775
0.000162275
0.000151945
0.000143453
0.000137012
0.000134317
0.000141591
0.000176497
0.000271811
0.000450746
0.000789188
0.000696459
0.000611186
0.000540841
0.00048432
0.000438979
0.000402274
0.000372173
0.000347162
0.000326173
0.000308606
0.000294669
0.00028675
0.000293859
0.000342003
0.000480564
0.00074436
0.00109878
0.000836115
0.000801865
0.000758437
0.000712996
0.000669519
0.000629763
0.000594201
0.000562695
0.000534906
0.000510588
0.000490048
0.000475488
0.000475173
0.000514108
0.000646272
0.000927363
0.00134066
0.0018085
0.000848358
0.000838443
0.000822609
0.000802398
0.000779608
0.00075576
0.00073194
0.000708855
0.000687008
0.000667044
0.000650677
0.000643566
0.000663451
0.000755261
0.000988486
0.0013921
0.00190795
0.00245442
0.000850837
0.000847496
0.000841502
0.000832838
0.0008219
0.000809263
0.000795521
0.000781223
0.000766959
0.000753756
0.000744459
0.000748056
0.000790765
0.000930518
0.00123645
0.00171482
0.00229513
0.00290062
0.000851479
0.000850214
0.000847951
0.000844451
0.000839657
0.000833657
0.000826642
0.000818878
0.000810798
0.000803433
0.000799927
0.000810351
0.000863594
0.00102116
0.00135225
0.00186228
0.00248517
0.00314737
0.000851646
0.000851029
0.00085013
0.000848809
0.000846966
0.000844548
0.000841563
0.000838094
0.000834392
0.000831283
0.00083155
0.000844386
0.000896739
0.00104811
0.00137161
0.00188592
0.00253932
0.00326352
0.000851679
0.000851223
0.000850717
0.000850112
0.000849361
0.000848421
0.000847271
0.000845929
0.000844534
0.00084365
0.000845325
0.000856583
0.00089899
0.0010248
0.00131166
0.001802
0.00246793
0.00325133
0.000851681
0.000851255
0.000850837
0.000850415
0.000849972
0.000849495
0.000848972
0.000848414
0.000847896
0.000847752
0.000849248
0.000856879
0.000885271
0.000974446
0.00120034
0.00163491
0.00228644
0.00311457
0.000851678
0.000851256
0.000850852
0.000850464
0.000850088
0.000849721
0.000849359
0.000849011
0.000848715
0.000848643
0.000849457
0.000853577
0.00086935
0.000922558
0.00107582
0.00142294
0.00202296
0.0028666
0.000851675
0.000851252
0.00085085
0.000850467
0.000850103
0.000849755
0.000849426
0.000849118
0.00084885
0.0008487
0.000848963
0.000850761
0.00085817
0.000885163
0.000973654
0.00121575
0.00172222
0.00253721
0.000851672
0.000851248
0.000850845
0.000850464
0.000850102
0.00084976
0.000849437
0.000849137
0.000848866
0.000848657
0.00084863
0.000849249
0.000852297
0.000864448
0.000909283
0.00105658
0.00144046
0.00217573
0.00085167
0.000851244
0.000850841
0.00085046
0.000850099
0.000849759
0.00084944
0.000849143
0.000848872
0.00084864
0.000848494
0.000848621
0.000849775
0.000855024
0.000876646
0.000959592
0.00122562
0.00184455
0.000851668
0.000851241
0.000850837
0.000850456
0.000850097
0.000849759
0.000849443
0.000849149
0.000848879
0.000848639
0.000848451
0.000848397
0.000848834
0.000851321
0.000862723
0.000911859
0.00109598
0.00160251
0.000851666
0.000851238
0.000850835
0.000850454
0.000850096
0.000849759
0.000849445
0.000849153
0.000848883
0.00084864
0.000848436
0.000848327
0.000848555
0.000850232
0.000858482
0.000896026
0.00104648
0.00149445
0.000851665
0.000851237
0.000850834
0.000850454
0.000850097
0.000849762
0.000849448
0.000849156
0.000848885
0.000848638
0.000848426
0.000848304
0.000848512
0.000850144
0.0008582
0.000894651
0.00103998
0.00147316
0.000851664
0.000851237
0.000850834
0.000850455
0.000850099
0.000849765
0.000849451
0.000849157
0.000848883
0.00084863
0.000848412
0.000848288
0.000848523
0.000850292
0.000858776
0.000895931
0.00103959
0.00145912
0.000851665
0.000851238
0.000850836
0.000850457
0.000850099
0.00084976
0.000849437
0.000849129
0.000848833
0.00084855
0.000848295
0.000848132
0.000848346
0.000850149
0.000858636
0.000894485
0.00102867
0.00141525
0.000851665
0.000851237
0.000850828
0.000850431
0.000850036
0.000849636
0.00084922
0.000848784
0.00084832
0.000847829
0.000847325
0.000846875
0.000846763
0.000848129
0.000855538
0.000886666
0.00100091
0.00133122
0.000851659
0.000851195
0.00085069
0.000850098
0.00084938
0.000848508
0.000847461
0.000846232
0.000844823
0.000843247
0.000841535
0.000839767
0.000838208
0.000837824
0.000842226
0.000864783
0.00095011
0.00120531
0.000851569
0.000850741
0.000849428
0.000847473
0.000844806
0.000841427
0.000837394
0.000832798
0.000827745
0.000822346
0.000816713
0.000810983
0.000805413
0.000800722
0.00079934
0.000809878
0.000861377
0.00103163
0.000850706
0.000847158
0.000840981
0.000832265
0.000821443
0.000809086
0.000795756
0.000781933
0.000767991
0.00075421
0.000740787
0.00072788
0.000715668
0.00070455
0.000695785
0.000693738
0.000713546
0.000801709
0.000844123
0.000825302
0.000798753
0.00076818
0.000736391
0.000705221
0.000675693
0.000648281
0.000623128
0.000600202
0.00057938
0.000560509
0.000543455
0.000528188
0.000515014
0.000505363
0.000504592
0.000531348
0.00080346
0.000727353
0.000653158
0.000588495
0.000533989
0.000488533
0.000450604
0.00041878
0.000391884
0.00036898
0.00034933
0.000332358
0.000317619
0.000304787
0.000293687
0.000284436
0.000277994
0.000278157
0.000625924
0.000466426
0.000370733
0.000306992
0.000261768
0.000228416
0.000203036
0.000183216
0.000167406
0.000154573
0.000144001
0.000135182
0.000127748
0.000121432
0.000116045
0.000111475
0.000107728
0.000105105
0.000254194
0.000158542
0.00011828
9.49791e-05
7.9996e-05
6.98006e-05
6.25592e-05
5.72441e-05
5.32427e-05
5.01695e-05
4.77709e-05
4.58743e-05
4.4359e-05
4.31387e-05
4.21509e-05
4.13501e-05
4.07061e-05
4.02134e-05
3.69326e-05
4.20258e-05
4.57644e-05
4.86765e-05
5.10866e-05
5.3056e-05
5.46448e-05
5.59104e-05
5.69051e-05
5.76756e-05
5.82622e-05
5.86989e-05
5.90143e-05
5.92323e-05
5.93724e-05
5.94507e-05
5.94806e-05
5.94729e-05
1.76847e-05
4.73244e-05
5.21959e-05
5.58615e-05
5.88228e-05
6.13124e-05
6.34569e-05
6.53346e-05
6.69989e-05
6.84852e-05
6.98239e-05
7.10351e-05
7.21364e-05
7.31416e-05
7.4062e-05
7.49079e-05
7.56868e-05
7.6405e-05
7.70682e-05
7.76813e-05
7.82476e-05
7.87712e-05
7.92554e-05
7.97021e-05
8.01121e-05
8.0484e-05
8.09101e-05
8.12929e-05
8.16226e-05
8.18979e-05
8.21181e-05
8.22823e-05
8.23896e-05
8.24396e-05
8.24326e-05
8.23692e-05
8.22503e-05
8.20776e-05
8.18523e-05
8.15759e-05
8.12507e-05
8.088e-05
8.04653e-05
8.00086e-05
7.95127e-05
7.89808e-05
7.84167e-05
7.78234e-05
7.7205e-05
7.65655e-05
7.59082e-05
7.5235e-05
7.45458e-05
7.38443e-05
7.31298e-05
7.23581e-05
7.15077e-05
7.06417e-05
6.98334e-05
6.91284e-05
6.83128e-05
6.71452e-05
6.60147e-05
6.54184e-05
6.50347e-05
6.47074e-05
6.43987e-05
6.40994e-05
6.38083e-05
6.35264e-05
6.32539e-05
6.29904e-05
6.27353e-05
6.24885e-05
6.22503e-05
6.20205e-05
6.17979e-05
6.15821e-05
6.13743e-05
6.11757e-05
6.09858e-05
6.0804e-05
6.06307e-05
6.04666e-05
6.03116e-05
6.01651e-05
6.00268e-05
5.9897e-05
5.97762e-05
5.96648e-05
5.95627e-05
5.94698e-05
5.93859e-05
5.93112e-05
5.92456e-05
5.91889e-05
5.91411e-05
5.91021e-05
5.9072e-05
5.90506e-05
5.90378e-05
5.90335e-05
5.90374e-05
5.90494e-05
5.90692e-05
5.90965e-05
5.91309e-05
5.9172e-05
5.92195e-05
5.92731e-05
5.93325e-05
5.93973e-05
5.9467e-05
5.95411e-05
5.96194e-05
5.97013e-05
5.97863e-05
5.98739e-05
5.99638e-05
6.00553e-05
6.01478e-05
6.0241e-05
6.03343e-05
6.04272e-05
6.05191e-05
6.06096e-05
6.06981e-05
6.07843e-05
6.08678e-05
6.09482e-05
6.10251e-05
6.10982e-05
6.11673e-05
6.12321e-05
6.12923e-05
6.13477e-05
6.1398e-05
6.1443e-05
6.14828e-05
6.15176e-05
6.1547e-05
6.15712e-05
6.15909e-05
6.16037e-05
6.16092e-05
6.16081e-05
6.16007e-05
6.15872e-05
6.15675e-05
6.15421e-05
6.15112e-05
6.14751e-05
6.14335e-05
6.1387e-05
6.13354e-05
6.12786e-05
6.12171e-05
6.11509e-05
6.108e-05
6.10046e-05
6.09244e-05
6.08393e-05
6.07491e-05
6.06543e-05
6.05541e-05
6.04485e-05
6.03373e-05
6.02196e-05
6.00951e-05
5.99625e-05
5.98206e-05
5.96679e-05
5.95018e-05
5.9319e-05
5.91147e-05
5.8882e-05
5.86105e-05
5.82812e-05
5.78689e-05
5.72242e-05
2.13622e-05
8.02476e-05
0.000109899
0.000130552
0.000149011
0.000166601
0.000183678
0.000200373
0.000216737
0.000232786
0.000248523
0.00026394
0.00027904
0.000293826
0.000308306
0.000322493
0.000336398
0.000350028
0.000363384
0.000376458
0.000389225
0.00040164
0.000413633
0.000425105
0.00043594
0.000446007
0.000455109
0.000463791
0.000472141
0.000480132
0.000487718
0.000494857
0.000501506
0.000507633
0.00051321
0.000518217
0.000522645
0.000526491
0.000529761
0.000532469
0.000534631
0.000536272
0.000537415
0.000538088
0.000538321
0.000538146
0.00053759
0.000536685
0.00053546
0.000533943
0.000532158
0.000530114
0.000527812
0.000525261
0.00052247
0.000519372
0.000515891
0.000511976
0.0005077
0.000503186
0.000498202
0.00049236
0.000485806
0.000478914
0.000471832
0.000464622
0.000457327
0.000449977
0.000442598
0.000435212
0.000427835
0.000420475
0.000413144
0.000405848
0.000398592
0.000391384
0.000384228
0.000377125
0.000370081
0.000363099
0.000356184
0.000349338
0.000342562
0.000335861
0.000329236
0.00032269
0.000316225
0.000309843
0.000303547
0.000297337
0.000291215
0.000285183
0.000279244
0.000273398
0.000267647
0.000261992
0.000256434
0.000250974
0.000245613
0.000240351
0.000235191
0.000230131
0.000225174
0.00022032
0.000215569
0.000210923
0.000206381
0.000201945
0.000197614
0.000193389
0.000189269
0.000185254
0.000181346
0.000177543
0.000173845
0.000170252
0.000166764
0.000163379
0.000160098
0.000156919
0.000153841
0.000150864
0.000147986
0.000145206
0.000142522
0.000139933
0.000137438
0.000135034
0.00013272
0.000130495
0.000128357
0.000126303
0.000124332
0.000122442
0.000120631
0.000118898
0.000117239
0.000115652
0.000114136
0.000112688
0.000111304
0.000109981
0.000108712
0.000107482
0.000106285
0.000105125
0.000104002
0.000102924
0.000101888
0.000100895
9.99421e-05
9.90281e-05
9.81514e-05
9.73106e-05
9.65047e-05
9.57321e-05
9.49918e-05
9.42824e-05
9.36027e-05
9.29516e-05
9.23277e-05
9.17295e-05
9.11555e-05
9.06046e-05
9.00748e-05
8.95644e-05
8.9071e-05
8.85921e-05
8.81244e-05
8.76634e-05
8.72042e-05
8.67399e-05
8.62611e-05
8.57557e-05
8.52055e-05
8.45853e-05
8.38563e-05
8.29559e-05
8.17556e-05
8.00703e-05
2.38117e-05
0.00010527
0.000163266
0.000205793
0.000244785
0.00028267
0.000319778
0.000355971
0.000391035
0.000424773
0.000457037
0.000487735
0.000516824
0.000544304
0.000570214
0.000594616
0.000617594
0.00063924
0.000659647
0.000678902
0.000697077
0.000714228
0.000730382
0.000745547
0.000759712
0.000772851
0.000784917
0.000796387
0.000807285
0.000817574
0.000827203
0.00083612
0.000844277
0.00085163
0.000858146
0.000863804
0.000868591
0.000872509
0.000875567
0.000877783
0.000879185
0.000879806
0.000879682
0.000878853
0.000877359
0.000875248
0.000872563
0.000869352
0.000865655
0.000861509
0.000856939
0.000851955
0.000846551
0.000840701
0.000834385
0.000827617
0.000820483
0.000813022
0.000805283
0.000797293
0.000789061
0.000780552
0.000771755
0.000762723
0.000753502
0.000744129
0.000734639
0.000725058
0.000715413
0.000705722
0.000696003
0.000686271
0.000676537
0.00066681
0.000657098
0.000647411
0.000637754
0.000628135
0.000618558
0.000609028
0.000599552
0.000590134
0.00058078
0.000571492
0.000562276
0.000553136
0.000544076
0.0005351
0.000526212
0.000517414
0.000508709
0.000500102
0.000491594
0.000483188
0.000474886
0.000466691
0.000458605
0.00045063
0.000442769
0.000435022
0.000427391
0.000419877
0.000412482
0.000405206
0.000398051
0.000391017
0.000384105
0.000377315
0.00037065
0.000364108
0.000357689
0.000351395
0.000345226
0.00033918
0.000333259
0.000327461
0.000321786
0.000316234
0.000310805
0.000305496
0.000300308
0.00029524
0.00029029
0.000285458
0.000280742
0.000276141
0.000271654
0.000267279
0.000263014
0.000258859
0.000254812
0.00025087
0.000247032
0.000243298
0.000239663
0.000236128
0.00023269
0.000229346
0.000226096
0.000222937
0.000219866
0.000216883
0.000213982
0.000211158
0.000208406
0.000205717
0.00020308
0.000200463
0.000197871
0.000195325
0.000192836
0.000190405
0.00018803
0.000185711
0.000183447
0.000181238
0.000179081
0.000176977
0.000174922
0.000172916
0.000170956
0.000169041
0.000167166
0.00016533
0.000163529
0.000161757
0.000160009
0.000158278
0.000156554
0.000154825
0.000153075
0.000151283
0.000149421
0.00014745
0.000145314
0.00014293
0.000140171
0.000136818
0.000132396
0.00012614
2.57094e-05
0.000124311
0.000212971
0.000279877
0.000340469
0.000398515
0.000454372
0.000507626
0.000557814
0.000604613
0.000647859
0.000687522
0.000723683
0.000756486
0.000786132
0.00081286
0.000836925
0.000858598
0.000878152
0.000895852
0.00091194
0.000926634
0.000940119
0.000952538
0.000963995
0.000974563
0.000984238
0.000993475
0.00100232
0.00101074
0.0010187
0.00102613
0.00103297
0.00103916
0.00104465
0.0010494
0.00105337
0.00105654
0.00105891
0.00106046
0.00106122
0.00106119
0.00106042
0.00105892
0.00105673
0.0010539
0.00105047
0.00104649
0.001042
0.00103704
0.00103163
0.00102576
0.00101944
0.00101272
0.00100568
0.000998348
0.000990774
0.000982985
0.000975003
0.000966843
0.000958515
0.000950021
0.00094136
0.00093254
0.000923571
0.000914472
0.000905258
0.000895947
0.000886554
0.000877094
0.00086758
0.000858023
0.000848433
0.000838817
0.000829184
0.000819541
0.000809893
0.000800248
0.000790612
0.00078099
0.000771388
0.000761812
0.00075227
0.000742765
0.000733304
0.000723893
0.000714537
0.000705242
0.000696012
0.000686853
0.00067777
0.000668769
0.000659852
0.000651025
0.00064229
0.000633653
0.000625117
0.000616684
0.000608357
0.00060014
0.000592035
0.000584043
0.000576168
0.000568409
0.000560769
0.000553248
0.000545848
0.000538568
0.00053141
0.000524372
0.000517456
0.000510661
0.000503986
0.000497431
0.000490996
0.000484679
0.000478479
0.000472396
0.000466427
0.000460573
0.000454831
0.000449199
0.000443677
0.000438262
0.000432954
0.00042775
0.00042265
0.000417651
0.000412751
0.00040795
0.000403246
0.000398636
0.00039412
0.000389696
0.000385361
0.000381114
0.000376954
0.000372878
0.000368886
0.000364974
0.000361142
0.000357386
0.000353704
0.000350093
0.000346548
0.000343063
0.000339632
0.000336239
0.000332871
0.000329499
0.000326134
0.0003228
0.000319498
0.00031623
0.000312998
0.000309803
0.000306644
0.000303523
0.000300439
0.000297391
0.000294377
0.000291395
0.000288442
0.000285515
0.000282606
0.00027971
0.000276815
0.000273911
0.000270979
0.000267997
0.000264935
0.000261753
0.000258396
0.000254785
0.000250809
0.000246297
0.000240984
0.000234419
0.000225722
0.000213701
2.72615e-05
0.000140591
0.000262611
0.000356934
0.000439749
0.000516388
0.000587643
0.000653205
0.000712736
0.000766132
0.000813528
0.000855223
0.00089161
0.00092313
0.000950241
0.000973399
0.000993057
0.00100966
0.00102365
0.00103543
0.00104541
0.00105393
0.00106132
0.00106782
0.00107364
0.00107893
0.00108376
0.00108853
0.00109341
0.00109838
0.00110336
0.00110828
0.00111303
0.00111751
0.00112162
0.00112526
0.00112837
0.00113086
0.0011327
0.00113386
0.00113432
0.00113406
0.00113311
0.00113148
0.00112921
0.00112633
0.0011229
0.00111896
0.00111456
0.00110975
0.00110453
0.00109896
0.0010931
0.00108697
0.00108062
0.00107411
0.00106745
0.00106068
0.00105382
0.00104686
0.00103982
0.0010327
0.00102549
0.00101819
0.00101079
0.0010033
0.000995716
0.000988046
0.000980295
0.000972469
0.000964572
0.000956609
0.000948583
0.0009405
0.000932363
0.000924175
0.000915939
0.00090766
0.000899343
0.000890992
0.000882612
0.000874208
0.000865788
0.000857356
0.000848919
0.000840485
0.000832059
0.000823649
0.000815262
0.000806906
0.000798587
0.000790312
0.000782089
0.000773923
0.000765821
0.000757789
0.000749833
0.000741957
0.000734168
0.000726468
0.000718863
0.000711355
0.000703949
0.000696646
0.000689448
0.000682358
0.000675377
0.000668506
0.000661745
0.000655095
0.000648554
0.000642124
0.000635804
0.000629591
0.000623485
0.000617486
0.00061159
0.000605798
0.000600106
0.000594513
0.000589017
0.000583616
0.000578308
0.000573092
0.000567964
0.000562924
0.000557969
0.000553099
0.00054831
0.000543602
0.000538973
0.000534421
0.000529945
0.000525544
0.000521216
0.000516959
0.000512773
0.000508655
0.000504605
0.000500622
0.000496703
0.000492846
0.000489049
0.000485311
0.000481627
0.000477993
0.000474404
0.000470853
0.000467329
0.000463817
0.000460292
0.000456774
0.000453264
0.000449766
0.000446282
0.000442813
0.000439362
0.00043593
0.000432517
0.000429123
0.000425748
0.000422391
0.000419047
0.000415715
0.000412387
0.000409056
0.00040571
0.000402335
0.000398911
0.000395411
0.000391799
0.000388024
0.000384019
0.000379687
0.000374889
0.000369414
0.000362936
0.000354913
0.000344367
0.00033013
2.86298e-05
0.000156479
0.000314099
0.000438407
0.000543107
0.000635362
0.000717229
0.000789271
0.000851889
0.000905648
0.00095127
0.00098956
0.00102132
0.0010473
0.00106819
0.00108463
0.00109721
0.00110649
0.00111301
0.00111729
0.00111983
0.00112109
0.00112148
0.00112136
0.00112101
0.00112064
0.00112036
0.0011206
0.00112158
0.00112328
0.00112556
0.00112829
0.00113129
0.00113439
0.00113743
0.00114026
0.00114273
0.00114474
0.0011462
0.00114704
0.00114721
0.0011467
0.00114551
0.00114364
0.00114114
0.00113806
0.00113447
0.00113041
0.00112594
0.00112111
0.00111606
0.00111076
0.00110528
0.00109967
0.00109399
0.00108827
0.00108256
0.00107686
0.0010712
0.00106558
0.00105999
0.00105444
0.00104892
0.00104342
0.00103792
0.00103242
0.0010269
0.00102136
0.0010158
0.0010102
0.00100456
0.000998869
0.000993124
0.000987319
0.000981448
0.000975506
0.000969488
0.000963392
0.000957216
0.000950958
0.000944619
0.0009382
0.000931703
0.000925131
0.000918491
0.000911786
0.000905024
0.000898212
0.000891358
0.000884471
0.000877559
0.000870632
0.000863698
0.000856768
0.00084985
0.000842954
0.000836088
0.000829261
0.000822482
0.000815757
0.000809093
0.000802497
0.000795975
0.000789531
0.00078317
0.000776895
0.00077071
0.000764617
0.000758617
0.000752712
0.000746903
0.00074119
0.000735571
0.000730047
0.000724617
0.000719279
0.00071403
0.000708871
0.000703797
0.000698807
0.000693898
0.000689069
0.000684317
0.000679639
0.000675033
0.000670497
0.000666029
0.000661628
0.00065729
0.000653014
0.000648799
0.000644643
0.000640545
0.000636504
0.000632518
0.000628585
0.000624706
0.000620878
0.000617102
0.000613375
0.000609697
0.000606067
0.000602481
0.00059894
0.000595439
0.000591977
0.00058855
0.000585153
0.000581778
0.000578417
0.000575056
0.000571688
0.000568317
0.000564947
0.000561577
0.00055821
0.000554848
0.000551492
0.000548143
0.000544803
0.000541469
0.000538144
0.000534823
0.000531504
0.000528182
0.00052485
0.000521496
0.000518107
0.000514664
0.000511139
0.000507498
0.000503691
0.000499652
0.000495287
0.000490462
0.000484979
0.00047854
0.00047067
0.000460578
0.000447486
2.99218e-05
0.000173217
0.000366789
0.000521265
0.000645676
0.000749398
0.000836745
0.000909977
0.000970735
0.00102052
0.00106073
0.00109267
0.0011175
0.0011362
0.00114962
0.0011585
0.00116352
0.00116528
0.00116442
0.00116153
0.00115719
0.00115196
0.00114635
0.00114076
0.00113555
0.00113095
0.00112708
0.00112439
0.00112305
0.00112295
0.00112388
0.00112561
0.00112788
0.00113045
0.00113311
0.00113564
0.00113785
0.0011396
0.00114077
0.00114126
0.001141
0.00113998
0.00113818
0.00113563
0.00113239
0.00112852
0.00112408
0.00111916
0.00111384
0.00110823
0.00110239
0.0010964
0.00109035
0.00108431
0.00107832
0.00107244
0.00106669
0.00106111
0.00105571
0.0010505
0.0010455
0.00104069
0.00103608
0.00103166
0.0010274
0.00102331
0.00101937
0.00101556
0.00101185
0.00100825
0.00100471
0.00100123
0.000997791
0.000994363
0.000990929
0.00098747
0.000983968
0.000980405
0.000976765
0.000973034
0.000969201
0.000965253
0.000961185
0.000956989
0.000952663
0.000948206
0.000943619
0.000938905
0.00093407
0.000929118
0.000924059
0.000918902
0.000913656
0.000908334
0.000902947
0.000897507
0.000892027
0.00088652
0.000880996
0.000875469
0.000869948
0.000864446
0.000858972
0.000853534
0.000848142
0.000842803
0.000837524
0.00083231
0.000827166
0.000822097
0.000817104
0.000812191
0.000807358
0.000802606
0.000797936
0.000793347
0.000788837
0.000784406
0.000780052
0.000775771
0.000771563
0.000767424
0.000763352
0.000759345
0.000755398
0.00075151
0.000747679
0.000743901
0.000740175
0.000736498
0.000732868
0.000729283
0.000725742
0.000722243
0.000718784
0.000715364
0.000711982
0.000708636
0.000705325
0.00070205
0.000698807
0.000695597
0.000692417
0.000689266
0.000686143
0.000683044
0.000679969
0.000676912
0.00067387
0.000670835
0.0006678
0.000664754
0.000661697
0.00065863
0.000655556
0.000652474
0.000649387
0.000646295
0.0006432
0.000640103
0.000637004
0.000633903
0.000630798
0.000627687
0.000624566
0.000621427
0.000618262
0.000615057
0.000611795
0.000608452
0.000604995
0.000601379
0.000597545
0.000593407
0.000588851
0.000583706
0.000577732
0.000570564
0.00056165
0.000550605
3.12056e-05
0.000190894
0.000418018
0.000599708
0.000740115
0.000851187
0.000940069
0.00101108
0.00106728
0.00111106
0.00114445
0.00116916
0.00118658
0.00119788
0.00120401
0.00120579
0.00120396
0.00119921
0.00119224
0.00118374
0.00117439
0.0011648
0.00115554
0.00114703
0.00113959
0.00113341
0.0011285
0.00112532
0.00112383
0.00112379
0.00112491
0.00112687
0.00112939
0.00113219
0.00113501
0.00113763
0.00113984
0.00114147
0.00114237
0.00114245
0.00114162
0.00113986
0.00113718
0.00113358
0.00112915
0.00112396
0.00111804
0.0011116
0.00110469
0.00109745
0.00109002
0.00108248
0.00107493
0.00106743
0.00106005
0.00105285
0.00104586
0.00103913
0.00103269
0.00102656
0.00102077
0.00101533
0.00101024
0.00100552
0.00100117
0.000997167
0.000993519
0.000990211
0.000987226
0.000984546
0.000982148
0.000980007
0.000978096
0.000976382
0.000974834
0.000973416
0.000972094
0.000970833
0.000969598
0.000968353
0.000967068
0.000965713
0.000964259
0.000962682
0.000960962
0.000959082
0.000957028
0.000954789
0.00095236
0.000949736
0.00094692
0.000943914
0.000940723
0.000937358
0.000933829
0.000930148
0.000926329
0.000922387
0.000918337
0.000914196
0.000909978
0.0009057
0.000901377
0.000897024
0.000892655
0.000888284
0.000883923
0.000879583
0.000875274
0.000871004
0.000866782
0.000862614
0.000858505
0.00085446
0.000850482
0.000846573
0.000842735
0.000838968
0.000835271
0.000831645
0.000828088
0.000824599
0.000821174
0.000817813
0.000814511
0.000811266
0.000808076
0.000804937
0.000801847
0.000798802
0.0007958
0.000792839
0.000789915
0.000787026
0.00078417
0.000781345
0.000778548
0.000775778
0.000773033
0.000770311
0.000767611
0.000764932
0.00076227
0.000759626
0.000756997
0.000754381
0.000751777
0.00074918
0.000746587
0.000743993
0.000741392
0.000738773
0.000736135
0.000733479
0.000730805
0.000728114
0.000725406
0.000722684
0.000719947
0.000717197
0.000714434
0.000711659
0.00070887
0.000706065
0.000703239
0.000700388
0.000697503
0.000694572
0.000691578
0.000688501
0.00068531
0.000681967
0.000678416
0.000674586
0.000670377
0.000665651
0.000660218
0.000653814
0.000646076
0.000636877
3.25112e-05
0.000208781
0.00046475
0.000668697
0.000821089
0.000936431
0.00102462
0.00109193
0.00114265
0.00117998
0.00120646
0.00122412
0.00123457
0.00123914
0.0012389
0.00123476
0.00122756
0.00121811
0.00120719
0.00119558
0.00118399
0.00117308
0.00116332
0.00115505
0.00114843
0.00114345
0.00113993
0.00113824
0.00113813
0.00113927
0.00114134
0.00114404
0.00114708
0.00115021
0.00115322
0.00115587
0.00115799
0.00115938
0.00115991
0.00115947
0.00115797
0.00115535
0.00115167
0.00114687
0.00114104
0.00113432
0.00112679
0.00111862
0.00110997
0.00110099
0.00109176
0.0010824
0.00107299
0.0010636
0.0010543
0.00104516
0.00103623
0.00102756
0.0010192
0.00101118
0.00100355
0.000996326
0.000989544
0.000983225
0.000977389
0.00097205
0.000967222
0.00096291
0.000959116
0.000955839
0.000953069
0.000950795
0.000948995
0.000947645
0.000946714
0.000946167
0.000945964
0.000946059
0.000946405
0.000946952
0.000947648
0.000948441
0.000949281
0.000950117
0.000950903
0.000951595
0.000952154
0.000952546
0.000952739
0.000952711
0.000952443
0.000951921
0.000951138
0.000950089
0.000948777
0.000947206
0.000945387
0.00094333
0.00094105
0.000938564
0.00093589
0.000933046
0.000930054
0.000926933
0.000923704
0.000920385
0.000916996
0.000913555
0.000910078
0.000906582
0.00090308
0.000899586
0.000896112
0.000892668
0.000889263
0.000885904
0.000882598
0.000879348
0.000876161
0.000873037
0.00086998
0.000866989
0.000864066
0.000861208
0.000858415
0.000855686
0.000853018
0.000850408
0.000847853
0.000845351
0.000842898
0.000840491
0.000838126
0.000835801
0.000833511
0.000831254
0.000829025
0.000826822
0.000824643
0.000822484
0.000820343
0.000818217
0.000816103
0.000814
0.000811906
0.000809817
0.000807731
0.000805646
0.000803557
0.000801459
0.000799345
0.000797208
0.000795045
0.000792855
0.000790638
0.000788394
0.000786123
0.000783826
0.000781503
0.000779157
0.000776786
0.000774391
0.000771971
0.000769523
0.000767044
0.000764529
0.000761969
0.000759356
0.000756672
0.000753899
0.000751011
0.000747971
0.000744733
0.000741233
0.000737389
0.000733088
0.000728186
0.000722491
0.000715776
0.00070806
3.38325e-05
0.000225773
0.000504816
0.000725733
0.000886738
0.00100446
0.00109104
0.00115432
0.00119965
0.00123089
0.00125101
0.00126235
0.00126678
0.00126579
0.00126061
0.00125231
0.00124185
0.00123013
0.001218
0.00120626
0.00119557
0.00118642
0.00117912
0.00117372
0.00117011
0.00116801
0.00116721
0.00116772
0.00116928
0.00117161
0.00117443
0.00117751
0.00118065
0.00118368
0.00118642
0.00118869
0.00119034
0.00119121
0.00119111
0.00119
0.00118773
0.00118417
0.00117945
0.00117351
0.00116645
0.00115846
0.00114968
0.00114024
0.00113026
0.00111987
0.00110915
0.00109822
0.00108715
0.00107603
0.00106493
0.00105391
0.00104304
0.00103237
0.00102194
0.00101181
0.00100202
0.000992604
0.000983607
0.000975064
0.000967011
0.00095948
0.000952503
0.000946107
0.000940318
0.000935157
0.000930641
0.000926782
0.000923585
0.00092105
0.000919168
0.000917924
0.000917294
0.000917248
0.000917746
0.000918742
0.000920182
0.000922006
0.000924151
0.000926551
0.000929135
0.000931834
0.000934579
0.000937305
0.00093995
0.000942457
0.000944777
0.000946865
0.000948684
0.000950207
0.000951412
0.000952285
0.000952817
0.000953008
0.000952863
0.000952391
0.000951605
0.000950523
0.000949164
0.000947551
0.000945706
0.000943655
0.00094142
0.000939027
0.000936499
0.000933859
0.000931129
0.000928331
0.000925484
0.000922606
0.000919713
0.000916819
0.000913939
0.000911083
0.000908263
0.000905486
0.000902761
0.000900092
0.000897484
0.000894941
0.000892466
0.000890058
0.000887719
0.000885448
0.000883243
0.000881103
0.000879026
0.000877008
0.000875045
0.000873135
0.000871273
0.000869454
0.000867675
0.000865931
0.000864219
0.000862534
0.000860872
0.00085923
0.000857604
0.00085599
0.000854386
0.000852788
0.000851192
0.000849596
0.000847993
0.000846379
0.000844747
0.000843087
0.000841398
0.000839678
0.000837924
0.000836137
0.000834315
0.000832458
0.000830566
0.000828639
0.000826678
0.000824682
0.000822649
0.000820577
0.000818464
0.000816302
0.000814087
0.000811807
0.000809449
0.000806995
0.000804422
0.000801697
0.00079878
0.000795616
0.000792136
0.000788251
0.000783853
0.000778805
0.000772973
0.000766452
3.51336e-05
0.000240711
0.000536945
0.000770242
0.000937409
0.00105652
0.00114133
0.00120094
0.00124149
0.00126743
0.00128217
0.00128836
0.00128812
0.00128319
0.00127496
0.00126465
0.00125333
0.00124193
0.00123128
0.00122205
0.00121471
0.00120948
0.00120635
0.00120506
0.0012052
0.00120619
0.00120785
0.00121012
0.00121282
0.00121576
0.00121876
0.00122166
0.00122434
0.00122671
0.00122867
0.00123006
0.00123082
0.00123086
0.00122987
0.00122787
0.00122476
0.00122037
0.00121479
0.00120812
0.00120042
0.00119179
0.00118233
0.00117215
0.00116134
0.00115003
0.00113831
0.00112628
0.00111403
0.00110164
0.00108919
0.00107674
0.00106434
0.00105206
0.00103993
0.00102801
0.00101634
0.00100496
0.000993918
0.000983244
0.000972984
0.000963177
0.000953865
0.000945088
0.000936886
0.000929296
0.000922358
0.000916103
0.000910565
0.000905769
0.000901739
0.00089849
0.00089603
0.000894361
0.000893474
0.000893351
0.000893962
0.000895269
0.000897223
0.000899764
0.000902823
0.000906326
0.000910188
0.000914326
0.000918652
0.000923078
0.000927518
0.000931892
0.000936124
0.000940149
0.000943908
0.00094735
0.000950438
0.000953142
0.000955442
0.000957327
0.000958794
0.000959848
0.000960499
0.000960763
0.00096066
0.000960213
0.000959448
0.000958391
0.000957072
0.000955519
0.000953761
0.000951825
0.00094974
0.00094753
0.00094522
0.000942833
0.00094039
0.000937911
0.000935414
0.000932915
0.00093043
0.00092797
0.000925547
0.000923169
0.000920846
0.000918584
0.000916387
0.000914259
0.000912203
0.000910219
0.000908308
0.000906469
0.0009047
0.000902999
0.000901361
0.000899783
0.000898262
0.000896792
0.000895369
0.000893988
0.000892645
0.000891334
0.000890051
0.000888792
0.000887553
0.000886328
0.000885115
0.000883907
0.0008827
0.000881486