/*--------------------------------*- C++ -*----------------------------------*\
| =========                 |                                                 |
| \\      /  F ield         | OpenFOAM: The Open Source CFD Toolbox           |
|  \\    /   O peration     | Version:  2.2.x                                 |
|   \\  /    A nd           | Web:      www.OpenFOAM.org                      |
|    \\/     M anipulation  |                                                 |
\*---------------------------------------------------------------------------*/
FoamFile
{
    version     2.0;
    format      ascii;
    class       volScalarField;
    location    "50";
    object      p;
}
// * * * * * * * * * * * * * * * * * * * * * * * * * * * * * * * * * * * * * //

dimensions      [0 2 -2 0 0 0 0];

internalField   nonuniform List<scalar> 
12225
(
9.33038
6.63265
5.80162
5.58791
5.45832
5.36056
5.30002
5.26948
5.26148
5.27282
5.3027
5.35093
5.41777
5.50448
5.61542
5.76291
5.9774
6.38946
5.54171
5.19381
5.09961
5.17074
5.19818
5.19264
5.18741
5.19153
5.2061
5.23253
5.27263
5.32778
5.399
5.48775
5.59801
5.74051
5.93748
6.18501
5.69393
5.85574
5.67041
5.56116
5.47176
5.38901
5.32906
5.2942
5.28087
5.2871
5.31232
5.35641
5.41934
5.50193
5.60769
5.74626
5.93628
6.18237
5.77729
5.79518
5.53914
5.39615
5.31803
5.25944
5.22204
5.20615
5.20833
5.22688
5.26164
5.31299
5.38132
5.46793
5.57677
5.71736
5.90637
6.14598
5.73894
5.69657
5.50074
5.38919
5.32969
5.28229
5.24857
5.23181
5.23097
5.24552
5.27589
5.32281
5.38693
5.46937
5.57356
5.70755
5.88495
6.10291
5.66175
5.61776
5.47362
5.37472
5.31447
5.26647
5.23152
5.21292
5.21025
5.22305
5.25173
5.29694
5.35938
5.43956
5.53988
5.66565
5.82541
6.01178
5.59176
5.55587
5.44473
5.35484
5.29523
5.24921
5.21581
5.19737
5.19383
5.20486
5.231
5.27293
5.33108
5.40512
5.49523
5.60329
5.73309
5.87641
5.53522
5.5043
5.41309
5.33211
5.27498
5.23087
5.19837
5.17932
5.17397
5.18231
5.2049
5.24278
5.29624
5.36451
5.44581
5.5382
5.64099
5.74541
5.48597
5.45845
5.38232
5.30962
5.25514
5.21254
5.18047
5.16046
5.15296
5.15817
5.17678
5.20983
5.25779
5.31966
5.39221
5.47037
5.54948
5.62043
5.43301
5.4089
5.34641
5.28214
5.23065
5.18941
5.1574
5.13588
5.12546
5.1264
5.13939
5.16531
5.2044
5.25492
5.31227
5.36888
5.41807
5.45158
5.37657
5.3559
5.305
5.24879
5.2005
5.16037
5.12796
5.10419
5.08975
5.08494
5.09025
5.10618
5.13248
5.16654
5.20237
5.23111
5.24569
5.24014
5.31688
5.29944
5.25789
5.20894
5.16381
5.12436
5.09079
5.06378
5.04401
5.03165
5.0268
5.02948
5.03884
5.05173
5.06141
5.05899
5.03815
4.99595
5.25422
5.23955
5.20519
5.16227
5.11977
5.08034
5.04463
5.01323
4.98655
4.96459
4.94698
4.93316
4.92174
4.90936
4.88973
4.85528
4.8013
4.72806
5.18906
5.17653
5.14726
5.1088
5.06797
5.02764
4.98866
4.9515
4.91631
4.88281
4.85029
4.81756
4.7827
4.74257
4.69232
4.62677
4.54375
4.44681
5.12223
5.11117
5.08503
5.04915
5.00873
4.96633
4.92289
4.87867
4.83368
4.78741
4.73882
4.68633
4.62782
4.56046
4.48103
4.38715
4.28006
4.16678
5.0554
5.04505
5.02029
4.98508
4.94361
4.89792
4.8489
4.79681
4.74152
4.68239
4.61828
4.54764
4.4685
4.37853
4.27564
4.15972
4.03532
3.91288
4.9916
4.98125
4.95631
4.92004
4.87593
4.82588
4.77063
4.71057
4.64557
4.57511
4.49833
4.414
4.32064
4.21659
4.10063
3.97396
3.84297
3.72007
4.94049
4.92958
4.90314
4.86433
4.81657
4.76172
4.70075
4.63412
4.56206
4.48428
4.40039
4.30971
4.21147
4.10474
3.98914
3.86651
3.74321
3.63098
4.91023
4.89846
4.86976
4.82752
4.77568
4.71635
4.65074
4.57953
4.50319
4.42195
4.33575
4.24451
4.14808
4.0463
3.93954
3.82977
3.72223
3.62614
4.89916
4.88636
4.85485
4.8086
4.75232
4.68875
4.61915
4.54453
4.46549
4.38259
4.29616
4.2066
4.11425
4.01953
3.92327
3.8274
3.7358
3.65493
4.90301
4.88925
4.85436
4.80313
4.74184
4.67392
4.60067
4.52301
4.44182
4.35781
4.27162
4.1839
4.09531
4.00668
3.91919
3.8347
3.75597
3.68711
4.91834
4.9041
4.86502
4.80738
4.74053
4.66823
4.59143
4.51089
4.4277
4.34265
4.25647
4.16989
4.08372
3.99904
3.91722
3.8399
3.76908
3.70733
4.94194
4.92876
4.88419
4.81816
4.74502
4.66831
4.58781
4.50428
4.41888
4.33238
4.24549
4.15893
4.07356
3.99047
3.91098
3.83659
3.76882
3.70919
4.97098
4.96203
4.91003
4.83379
4.75453
4.67374
4.58976
4.50368
4.41659
4.32905
4.24155
4.15471
4.06929
3.9862
3.90654
3.83161
3.76259
3.70046
5.00344
5.00275
4.9365
4.84783
4.76377
4.67873
4.59017
4.50034
4.41049
4.3209
4.23184
4.14378
4.05729
3.97299
3.89169
3.81432
3.7417
3.67421
5.04119
5.06595
4.96958
4.86512
4.78184
4.69836
4.61007
4.52025
4.43017
4.33992
4.2498
4.16033
4.07199
3.98524
3.90054
3.81844
3.73957
3.66464
5.04389
5.15411
5.00354
4.85681
4.7532
4.65763
4.56357
4.47265
4.38394
4.29616
4.20894
4.12234
4.03647
3.95137
3.86705
3.78347
3.70058
3.61827
4.94468
5.2713
5.18481
5.06664
4.95483
4.83447
4.71494
4.60149
4.4931
4.38834
4.28661
4.18762
4.09102
3.99636
3.90309
3.81048
3.71774
3.62483
4.645
4.57531
4.53195
4.5893
4.60229
4.5655
4.50784
4.44106
4.36766
4.28921
4.20747
4.12371
4.03864
3.95247
3.86493
3.77511
3.68127
3.5809
8.33907
6.14052
5.33195
5.09603
4.94101
4.79706
4.67085
4.55873
4.45406
4.35347
4.25573
4.16026
4.06644
3.9736
3.88081
3.78659
3.68859
3.58079
6.57682
6.47515
6.33708
6.17502
5.9908
5.79163
5.58425
5.37438
5.16691
4.96594
4.77494
4.59682
4.43394
4.28825
4.16134
4.0547
3.96992
3.90868
3.87263
3.86301
3.88041
3.92491
3.99671
4.09648
4.22559
4.38554
4.57704
4.79974
5.05275
5.33485
5.64445
5.97958
6.33793
6.71687
7.11346
7.52455
7.94688
8.37717
8.81226
9.24921
9.68538
10.1184
10.5462
10.967
11.3792
11.7815
12.1727
12.5517
12.9175
13.2694
13.6069
13.9301
14.2389
14.5332
14.813
15.0788
15.3308
15.5687
15.7924
16.0022
16.2009
16.3919
16.5763
16.7531
16.9216
17.0812
17.2317
17.3731
17.5055
17.6293
17.7446
17.8517
17.951
18.0427
18.1273
18.2049
18.2759
18.3406
18.3992
18.4522
18.4997
18.542
18.5794
18.6123
18.6408
18.6652
18.6859
18.7029
18.7166
18.7271
18.7346
18.7394
18.7416
18.7415
18.7391
18.7347
18.7285
18.7206
18.7111
18.7001
18.6879
18.6746
18.6604
18.6453
18.6295
18.6131
18.5962
18.579
18.5616
18.544
18.5263
18.5084
18.4903
18.4722
18.4541
18.4359
18.4178
18.3996
18.3816
18.3636
18.3457
18.328
18.3105
18.2933
18.2764
18.2598
18.2435
18.2276
18.212
18.1967
18.1818
18.1671
18.1526
18.1384
18.1243
18.1104
18.0967
18.0831
18.0696
18.0563
18.0431
18.0301
18.0173
18.0046
17.9922
17.98
17.9679
17.956
17.9442
17.9326
17.9212
17.9099
17.8989
17.8881
17.8773
17.8668
17.8564
17.8464
17.8366
17.8273
17.8183
17.8098
17.802
17.7948
17.7887
17.7839
17.7807
17.7797
17.7813
17.7863
17.7957
17.8109
17.8336
17.8664
17.913
17.9788
18.0719
18.2054
18.4066
18.6943
6.5053
6.40555
6.27406
6.11804
5.93947
5.74492
5.54139
5.33486
5.13033
4.93195
4.74306
4.56645
4.40437
4.25872
4.13109
4.02293
3.93569
3.87087
3.83003
3.81456
3.82546
3.86335
3.9286
4.02186
4.14426
4.29714
4.48126
4.69649
4.94219
5.21727
5.52021
5.84913
6.20173
6.57539
6.96716
7.37386
7.79223
8.21904
8.6512
9.08591
9.52068
9.95326
10.3817
10.8042
11.2189
11.6242
12.0184
12.3999
12.7675
13.1201
13.4572
13.7791
14.0861
14.3788
14.6581
14.9251
15.1804
15.4242
15.6558
15.8742
16.08
16.2747
16.4605
16.6382
16.8078
16.9688
17.1213
17.2649
17.4
17.5265
17.6447
17.7549
17.8573
17.9522
18.0399
18.1207
18.1948
18.2626
18.3243
18.3802
18.4306
18.4758
18.5161
18.5517
18.5829
18.6099
18.6331
18.6526
18.6686
18.6814
18.6911
18.698
18.7022
18.704
18.7036
18.701
18.6965
18.6902
18.6823
18.6729
18.6622
18.6503
18.6374
18.6236
18.609
18.5938
18.578
18.5619
18.5455
18.5289
18.512
18.495
18.4777
18.4604
18.443
18.4255
18.408
18.3904
18.3729
18.3554
18.3381
18.3209
18.3038
18.287
18.2705
18.2544
18.2385
18.2229
18.2076
18.1927
18.178
18.1636
18.1493
18.1353
18.1214
18.1077
18.0941
18.0807
18.0674
18.0543
18.0412
18.0284
18.0157
18.0032
17.9909
17.9787
17.9667
17.9548
17.9431
17.9316
17.9202
17.909
17.898
17.8872
17.8765
17.866
17.8557
17.8456
17.8359
17.8266
17.8176
17.8091
17.8012
17.7941
17.788
17.7831
17.7799
17.7787
17.7802
17.7851
17.7943
17.8091
17.8314
17.8636
17.9093
17.9734
18.0639
18.1922
18.3797
18.6123
6.17112
6.07663
5.95736
5.81983
5.66367
5.49241
5.31188
5.12741
4.94352
4.76392
4.5917
4.42936
4.27905
4.14263
4.02177
3.9181
3.83318
3.76863
3.72613
3.70734
3.7137
3.74638
3.80631
3.89437
4.01167
4.15952
4.33888
4.5499
4.79207
5.0644
5.36539
5.69309
6.0451
6.41864
6.81058
7.21758
7.63623
8.06324
8.49559
8.93057
9.36586
9.7994
10.2293
10.6536
11.0704
11.4775
11.8728
12.2543
12.6204
12.9702
13.3037
13.6216
13.9252
14.2159
14.495
14.7631
15.02
15.2658
15.5002
15.7232
15.9351
16.1368
16.329
16.5122
16.6865
16.8519
17.0083
17.1558
17.2946
17.4247
17.5465
17.6602
17.766
17.8642
17.9551
18.039
18.1161
18.1868
18.2514
18.3101
18.3633
18.4111
18.4538
18.4919
18.5255
18.5548
18.5802
18.6018
18.6198
18.6346
18.6462
18.6549
18.661
18.6645
18.6656
18.6647
18.6617
18.6568
18.6503
18.6422
18.6328
18.6221
18.6105
18.5978
18.5844
18.5703
18.5556
18.5405
18.5251
18.5093
18.4933
18.477
18.4606
18.444
18.4273
18.4104
18.3935
18.3766
18.3596
18.3428
18.326
18.3093
18.2928
18.2765
18.2605
18.2448
18.2294
18.2143
18.1995
18.1849
18.1706
18.1565
18.1426
18.1289
18.1153
18.1018
18.0885
18.0754
18.0623
18.0494
18.0366
18.024
18.0115
17.9993
17.9872
17.9752
17.9634
17.9517
17.9402
17.9288
17.9176
17.9065
17.8956
17.8849
17.8743
17.8639
17.8536
17.8437
17.834
17.8247
17.8157
17.8072
17.7993
17.7921
17.7859
17.781
17.7776
17.7762
17.7774
17.7818
17.7903
17.8042
17.8252
17.8555
17.8983
17.958
18.041
18.1555
18.3133
18.4858
5.74023
5.65919
5.55568
5.43686
5.30306
5.15567
4.99902
4.83752
4.67496
4.51447
4.35871
4.20998
4.07032
3.94167
3.82587
3.72474
3.64019
3.57418
3.52872
3.50582
3.50742
3.53517
3.59049
3.67462
3.78887
3.9346
4.11294
4.32429
4.56825
4.84378
5.14924
5.48249
5.84088
6.2213
6.62031
7.03432
7.45974
7.8932
8.33165
8.7725
9.21343
9.65238
10.0873
10.516
10.9361
11.345
11.7404
12.1203
12.4837
12.8307
13.1626
13.481
13.7872
14.0819
14.3649
14.6365
14.8968
15.1457
15.3834
15.61
15.8257
16.0312
16.2268
16.4128
16.5895
16.7571
16.9155
17.0651
17.2058
17.338
17.4618
17.5775
17.6854
17.7856
17.8786
17.9646
18.0438
18.1165
18.1831
18.2439
18.299
18.3488
18.3936
18.4336
18.469
18.5002
18.5274
18.5508
18.5706
18.587
18.6003
18.6106
18.6182
18.6232
18.6258
18.6263
18.6247
18.6212
18.616
18.6093
18.6011
18.5917
18.5813
18.5698
18.5576
18.5446
18.531
18.517
18.5025
18.4877
18.4726
18.4572
18.4415
18.4257
18.4097
18.3936
18.3774
18.3612
18.3449
18.3286
18.3125
18.2964
18.2806
18.2649
18.2495
18.2344
18.2195
18.2049
18.1905
18.1764
18.1625
18.1488
18.1353
18.1218
18.1086
18.0954
18.0824
18.0695
18.0568
18.0441
18.0316
18.0193
18.0071
17.9951
17.9832
17.9715
17.9598
17.9483
17.937
17.9257
17.9147
17.9038
17.893
17.8823
17.8718
17.8614
17.8513
17.8414
17.8318
17.8225
17.8135
17.805
17.797
17.7897
17.7834
17.7783
17.7747
17.7729
17.7736
17.7773
17.7848
17.7974
17.8164
17.8439
17.8826
17.936
18.0086
18.1051
18.2297
18.3521
5.29204
5.22073
5.12659
5.01944
4.90131
4.77193
4.63415
4.49122
4.34607
4.20117
4.05868
3.92062
3.78893
3.66556
3.55251
3.45188
3.3659
3.2969
3.24732
3.21964
3.21622
3.23923
3.29056
3.37189
3.48483
3.63101
3.8118
4.02777
4.27847
4.56265
4.87838
5.22312
5.59377
5.98675
6.39824
6.82436
7.26132
7.7057
8.15446
8.60498
9.05488
9.5019
9.94366
10.3774
10.8004
11.2102
11.6048
11.9829
12.3448
12.6918
13.0264
13.3493
13.6603
13.9594
14.2466
14.522
14.7857
15.0378
15.2785
15.5081
15.7269
15.9351
16.1333
16.3216
16.5004
16.6698
16.83
16.9812
17.1237
17.2575
17.383
17.5005
17.6101
17.7121
17.8069
17.8946
17.9756
18.0502
18.1186
18.1812
18.2381
18.2897
18.3362
18.378
18.4151
18.448
18.4769
18.5018
18.5232
18.5412
18.556
18.5678
18.5768
18.5833
18.5873
18.5891
18.5889
18.5867
18.5828
18.5773
18.5704
18.5622
18.5529
18.5426
18.5315
18.5196
18.507
18.494
18.4804
18.4665
18.4522
18.4376
18.4227
18.4077
18.3924
18.377
18.3614
18.3458
18.3302
18.3146
18.2991
18.2836
18.2684
18.2533
18.2385
18.2239
18.2095
18.1954
18.1815
18.1678
18.1543
18.141
18.1277
18.1146
18.1017
18.0888
18.0761
18.0635
18.0511
18.0387
18.0265
18.0144
18.0025
17.9907
17.9791
17.9675
17.9561
17.9448
17.9336
17.9225
17.9116
17.9008
17.8901
17.8796
17.8691
17.8589
17.8488
17.8389
17.8293
17.82
17.811
17.8024
17.7943
17.787
17.7805
17.7751
17.7711
17.7689
17.7689
17.7716
17.7779
17.7887
17.8053
17.8294
17.863
17.9088
17.9695
18.0469
18.1398
18.2208
4.83495
4.77018
4.6809
4.58046
4.47263
4.35575
4.23116
4.10111
3.96771
3.83283
3.69826
3.56575
3.43718
3.31457
3.20012
3.09618
3.00534
2.93037
2.87416
2.83969
2.82987
2.84737
2.89453
2.97348
3.08634
3.23521
3.42177
3.64661
3.90913
4.20768
4.53976
4.90219
5.29122
5.70271
6.13235
6.5759
7.02943
7.48938
7.95262
8.41642
8.87818
9.3352
9.78469
10.2238
10.6498
11.0608
11.4559
11.8351
12.1998
12.552
12.8924
13.2206
13.5365
13.84
14.1312
14.4103
14.6774
14.9327
15.1764
15.4089
15.6304
15.8412
16.0417
16.2322
16.413
16.5842
16.7461
16.899
17.0431
17.1786
17.3058
17.4248
17.5361
17.6398
17.7362
17.8256
17.9083
17.9846
18.0547
18.119
18.1776
18.231
18.2792
18.3226
18.3615
18.396
18.4264
18.453
18.476
18.4955
18.5118
18.5251
18.5356
18.5434
18.5489
18.552
18.5531
18.5523
18.5497
18.5455
18.5398
18.5329
18.5248
18.5157
18.5056
18.4948
18.4834
18.4713
18.4586
18.4456
18.4321
18.4183
18.4043
18.39
18.3754
18.3607
18.3458
18.3309
18.316
18.3011
18.2862
18.2714
18.2567
18.2423
18.228
18.214
18.2002
18.1865
18.173
18.1598
18.1466
18.1336
18.1207
18.108
18.0953
18.0828
18.0704
18.058
18.0459
18.0338
18.0218
18.01
17.9984
17.9868
17.9754
17.9641
17.9528
17.9417
17.9306
17.9197
17.9089
17.8982
17.8876
17.8771
17.8667
17.8565
17.8465
17.8366
17.827
17.8176
17.8086
17.7999
17.7917
17.7842
17.7775
17.7718
17.7673
17.7645
17.7636
17.7652
17.77
17.7787
17.7925
17.8125
17.8405
17.878
17.9263
17.985
18.0495
18.0965
4.37009
4.30981
4.22251
4.12509
4.02282
3.91307
3.79586
3.6725
3.5445
3.41328
3.28031
3.14725
3.01596
2.88854
2.76737
2.65514
2.55482
2.46967
2.40314
2.3588
2.34015
2.35044
2.39257
2.46918
2.58299
2.73679
2.93262
3.17101
3.45091
3.77
4.12497
4.51175
4.92573
5.36204
5.81582
6.28245
6.75772
7.23787
7.71959
8.19975
8.67536
9.14347
9.6012
10.046
10.4761
10.8906
11.2899
11.6753
12.0476
12.4073
12.7542
13.0881
13.409
13.7171
14.0125
14.2954
14.5661
14.8247
15.0716
15.307
15.5314
15.7449
15.9479
16.1407
16.3236
16.4969
16.6607
16.8155
16.9613
17.0985
17.2274
17.3482
17.4611
17.5665
17.6647
17.7558
17.8402
17.9182
17.99
18.056
18.1164
18.1714
18.2213
18.2665
18.307
18.3432
18.3752
18.4034
18.4279
18.449
18.4669
18.4817
18.4937
18.503
18.5099
18.5145
18.517
18.5175
18.5163
18.5134
18.5091
18.5034
18.4965
18.4886
18.4798
18.4701
18.4596
18.4485
18.4368
18.4247
18.4121
18.3992
18.386
18.3724
18.3586
18.3447
18.3305
18.3164
18.3021
18.2879
18.2737
18.2595
18.2455
18.2317
18.218
18.2045
18.1912
18.178
18.1649
18.1521
18.1393
18.1267
18.1141
18.1017
18.0893
18.0771
18.065
18.053
18.041
18.0292
18.0176
18.006
17.9946
17.9833
17.9721
17.9609
17.9499
17.9389
17.928
17.9172
17.9065
17.8958
17.8853
17.8749
17.8646
17.8544
17.8444
17.8345
17.8249
17.8154
17.8063
17.7975
17.7892
17.7814
17.7744
17.7683
17.7633
17.7597
17.7579
17.7582
17.7612
17.7676
17.7782
17.7939
17.8158
17.8447
17.8807
17.9218
17.9618
17.9812
3.90105
3.84307
3.75483
3.65683
3.55549
3.44732
3.33133
3.20812
3.07862
2.94395
2.80543
2.66465
2.52347
2.38422
2.24953
2.12247
2.00648
1.90536
1.82324
1.76444
1.73322
1.73352
1.7689
1.84276
1.95871
2.12035
2.32999
2.58789
2.8922
3.23955
3.62543
4.04458
4.49133
4.95993
5.44483
5.9409
6.44349
6.94844
7.45199
7.95071
8.44147
8.9215
9.38847
9.84084
10.2781
10.7006
11.1094
11.5047
11.8859
12.2533
12.6068
12.9467
13.273
13.5859
13.8858
14.1729
14.4474
14.7097
14.9601
15.1988
15.4262
15.6427
15.8485
16.0439
16.2293
16.4049
16.571
16.7278
16.8758
17.015
17.1458
17.2685
17.3834
17.4906
17.5906
17.6836
17.7698
17.8496
17.9232
17.991
18.0531
18.1099
18.1616
18.2084
18.2507
18.2885
18.3223
18.3521
18.3783
18.401
18.4205
18.4369
18.4504
18.4613
18.4697
18.4758
18.4797
18.4817
18.4819
18.4804
18.4774
18.4731
18.4675
18.4609
18.4532
18.4447
18.4353
18.4253
18.4146
18.4034
18.3918
18.3798
18.3674
18.3547
18.3417
18.3285
18.3152
18.3018
18.2883
18.2748
18.2613
18.2478
18.2344
18.2212
18.2081
18.1952
18.1823
18.1696
18.157
18.1446
18.1322
18.1199
18.1077
18.0956
18.0836
18.0717
18.0599
18.0482
18.0365
18.025
18.0136
18.0023
17.9912
17.9801
17.969
17.9581
17.9472
17.9363
17.9256
17.9149
17.9043
17.8937
17.8833
17.8729
17.8626
17.8524
17.8424
17.8325
17.8229
17.8134
17.8041
17.7952
17.7867
17.7787
17.7714
17.7648
17.7592
17.7547
17.7517
17.7506
17.7517
17.7556
17.7628
17.7739
17.7896
17.81
17.8342
17.8594
17.8784
17.8755
3.43157
3.37385
3.28216
3.1802
3.07525
2.96314
2.84203
2.71198
2.57358
2.42773
2.27561
2.11883
1.95943
1.79989
1.64323
1.49298
1.3532
1.22843
1.12366
1.04411
0.994935
0.981002
1.00685
1.07705
1.19659
1.37008
1.59983
1.88524
2.22318
2.60872
3.03574
3.4974
3.98663
4.49651
5.02057
5.55289
6.08817
6.62176
7.1497
7.66867
8.17599
8.66986
9.14912
9.6134
10.0633
10.4986
10.9187
11.3236
11.7135
12.0884
12.4487
12.7946
13.1265
13.4445
13.7491
14.0405
14.3192
14.5854
14.8395
15.0818
15.3126
15.5323
15.7413
15.9397
16.1279
16.3063
16.475
16.6344
16.7847
16.9263
17.0595
17.1844
17.3015
17.4109
17.513
17.608
17.6962
17.778
17.8536
17.9233
17.9873
18.0459
18.0995
18.1481
18.1921
18.2318
18.2672
18.2988
18.3267
18.3511
18.3723
18.3903
18.4055
18.418
18.4279
18.4356
18.441
18.4445
18.4462
18.4462
18.4446
18.4417
18.4375
18.4321
18.4257
18.4183
18.4101
18.4012
18.3916
18.3815
18.3709
18.3598
18.3483
18.3365
18.3244
18.3121
18.2996
18.287
18.2743
18.2615
18.2487
18.236
18.2233
18.2107
18.1982
18.1858
18.1735
18.1613
18.1491
18.1371
18.1251
18.1132
18.1014
18.0897
18.078
18.0665
18.055
18.0436
18.0322
18.021
18.0099
17.9988
17.9879
17.977
17.9662
17.9554
17.9447
17.934
17.9233
17.9128
17.9022
17.8918
17.8813
17.871
17.8608
17.8506
17.8406
17.8307
17.821
17.8114
17.8021
17.7931
17.7844
17.7761
17.7683
17.7612
17.7549
17.7495
17.7453
17.7426
17.7417
17.7429
17.7466
17.7532
17.7626
17.7747
17.788
17.7989
17.8001
17.7792
2.96711
2.90832
2.81156
2.7031
2.59049
2.46901
2.33643
2.19241
2.03728
1.87178
1.69712
1.515
1.32761
1.13776
0.948916
0.765196
0.591453
0.433189
0.296495
0.187781
0.113317
0.0791245
0.0912612
0.156317
0.281435
0.472152
0.73026
1.05361
1.43711
1.87364
2.35479
2.87153
3.41485
3.97622
4.54782
5.12282
5.69548
6.26101
6.81593
7.358
7.88554
8.39818
8.89567
9.37684
9.84119
10.2887
10.7196
11.1339
11.532
11.9143
12.2812
12.6331
12.9703
13.2934
13.6027
13.8986
14.1814
14.4517
14.7096
14.9556
15.1901
15.4133
15.6256
15.8273
16.0187
16.2001
16.3718
16.534
16.6872
16.8316
16.9674
17.0949
17.2145
17.3264
17.4309
17.5283
17.6189
17.7029
17.7807
17.8525
17.9186
17.9793
18.0348
18.0854
18.1313
18.1728
18.2102
18.2436
18.2732
18.2994
18.3223
18.342
18.3589
18.373
18.3846
18.3939
18.4009
18.406
18.4092
18.4107
18.4106
18.409
18.4062
18.4021
18.397
18.3909
18.384
18.3762
18.3678
18.3587
18.3491
18.339
18.3286
18.3177
18.3065
18.2951
18.2835
18.2718
18.2599
18.2479
18.2359
18.2239
18.2119
18.1999
18.1881
18.1763
18.1645
18.1528
18.1411
18.1295
18.118
18.1065
18.0951
18.0838
18.0725
18.0613
18.0501
18.0391
18.028
18.0171
18.0063
17.9955
17.9847
17.9741
17.9634
17.9528
17.9423
17.9317
17.9212
17.9108
17.9003
17.8899
17.8796
17.8693
17.8591
17.8489
17.8389
17.829
17.8193
17.8096
17.8002
17.791
17.7821
17.7735
17.7653
17.7576
17.7505
17.7442
17.7387
17.7344
17.7314
17.7299
17.7301
17.732
17.7354
17.7397
17.7428
17.7411
17.7273
17.692
2.51735
2.45731
2.3554
2.23889
2.1152
1.97945
1.82919
1.66392
1.48391
1.2899
1.08312
0.865358
0.639071
0.407428
0.174423
-0.0550557
-0.275154
-0.479024
-0.659144
-0.807785
-0.917311
-0.980067
-0.987578
-0.929924
-0.796875
-0.582318
-0.28563
0.0887332
0.532777
1.03612
1.58704
2.17333
2.78322
3.40623
4.03314
4.65663
5.27154
5.87375
6.46088
7.03261
7.58734
8.12312
8.6397
9.13703
9.61524
10.0747
10.5157
10.939
11.3449
11.7342
12.1073
12.4648
12.8072
13.1351
13.4489
13.749
14.036
14.3102
14.572
14.8217
15.0598
15.2865
15.5023
15.7073
15.902
16.0867
16.2615
16.4269
16.5832
16.7305
16.8693
16.9997
17.1221
17.2368
17.3441
17.4441
17.5373
17.6239
17.7041
17.7783
17.8468
17.9097
17.9674
18.0202
18.0682
18.1118
18.1511
18.1865
18.218
18.246
18.2707
18.2923
18.3109
18.3267
18.34
18.3509
18.3596
18.3663
18.3711
18.3741
18.3754
18.3753
18.3739
18.3712
18.3674
18.3626
18.3569
18.3503
18.3431
18.3351
18.3266
18.3176
18.3082
18.2983
18.2881
18.2777
18.267
18.2561
18.2451
18.234
18.2227
18.2115
18.2002
18.1889
18.1777
18.1665
18.1553
18.1441
18.133
18.1219
18.1108
18.0998
18.0888
18.0779
18.067
18.0562
18.0454
18.0346
18.0239
18.0133
18.0027
17.9922
17.9817
17.9712
17.9608
17.9504
17.94
17.9296
17.9192
17.9089
17.8985
17.8882
17.8779
17.8677
17.8575
17.8474
17.8374
17.8274
17.8176
17.8079
17.7984
17.789
17.7798
17.7709
17.7622
17.7539
17.7461
17.7387
17.732
17.726
17.7209
17.7167
17.7133
17.7108
17.7084
17.7053
17.6993
17.6865
17.6601
17.613
2.09873
2.03872
1.9332
1.80836
1.67094
1.51641
1.34263
1.14917
0.936276
0.7047
0.455822
0.191629
-0.0851667
-0.371027
-0.661413
-0.950468
-1.23094
-1.4944
-1.73162
-1.93331
-2.0903
-2.19263
-2.22802
-2.18132
-2.03803
-1.79184
-1.44452
-1.00348
-0.481196
0.106923
0.744476
1.41487
2.10303
2.79713
3.4873
4.16652
4.83178
5.47976
6.1065
6.71069
7.292
7.85017
8.38547
8.89846
9.38984
9.86041
10.311
10.7425
11.1556
11.5512
11.93
12.2927
12.6399
12.9723
13.2903
13.5945
13.8854
14.1634
14.4288
14.6822
14.9238
15.154
15.3732
15.5816
15.7796
15.9675
16.1456
16.3142
16.4735
16.624
16.7658
16.8993
17.0247
17.1424
17.2525
17.3555
17.4515
17.5408
17.6238
17.7007
17.7717
17.8372
17.8974
17.9525
18.0029
18.0487
18.0902
18.1276
18.1612
18.1912
18.2179
18.2413
18.2617
18.2794
18.2944
18.3071
18.3174
18.3257
18.3321
18.3366
18.3395
18.3409
18.3408
18.3395
18.3371
18.3336
18.3292
18.3238
18.3177
18.311
18.3036
18.2957
18.2873
18.2785
18.2693
18.2598
18.2501
18.2401
18.2299
18.2196
18.2092
18.1987
18.1882
18.1777
18.1671
18.1565
18.1459
18.1353
18.1247
18.1141
18.1035
18.0929
18.0824
18.0719
18.0615
18.051
18.0406
18.0302
18.0198
18.0095
17.9992
17.9889
17.9787
17.9684
17.9582
17.948
17.9378
17.9276
17.9173
17.907
17.8968
17.8865
17.8763
17.8661
17.856
17.8459
17.8359
17.826
17.8161
17.8063
17.7967
17.7871
17.7777
17.7684
17.7592
17.7503
17.7417
17.7333
17.7253
17.7176
17.7104
17.7035
17.6967
17.6898
17.682
17.6721
17.6578
17.6353
17.5983
17.5417
1.73599
1.67871
1.57287
1.44061
1.28773
1.11075
0.90824
0.680095
0.426761
0.149194
-0.151124
-0.472056
-0.810695
-1.16312
-1.52406
-1.88659
-2.24187
-2.57955
-2.88862
-3.15825
-3.37756
-3.53333
-3.60705
-3.57533
-3.41965
-3.13384
-2.72226
-2.19695
-1.57768
-0.887454
-0.148141
0.619076
1.39578
2.17096
2.93608
3.6819
4.4029
5.09678
5.76198
6.39811
7.00555
7.58515
8.13803
8.66548
9.16884
9.64943
10.1085
10.5473
10.9668
11.368
11.7519
12.1193
12.4708
12.8073
13.1293
13.4373
13.7319
14.0135
14.2824
14.5393
14.7843
15.0178
15.2403
15.452
15.6532
15.8443
16.0256
16.1973
16.3598
16.5133
16.6582
16.7948
16.9232
17.0439
17.157
17.263
17.3619
17.4542
17.54
17.6197
17.6935
17.7617
17.8245
17.8823
17.9352
17.9834
18.0273
18.0671
18.1029
18.1351
18.1638
18.1892
18.2116
18.2312
18.2481
18.2625
18.2746
18.2846
18.2925
18.2987
18.3031
18.3059
18.3074
18.3075
18.3064
18.3042
18.301
18.2969
18.2921
18.2864
18.2802
18.2734
18.2661
18.2583
18.2502
18.2417
18.2329
18.2238
18.2145
18.2051
18.1955
18.1858
18.1761
18.1662
18.1563
18.1464
18.1364
18.1263
18.1163
18.1062
18.0961
18.0861
18.076
18.066
18.0559
18.0459
18.0358
18.0258
18.0157
18.0057
17.9957
17.9857
17.9757
17.9657
17.9557
17.9457
17.9357
17.9256
17.9155
17.9053
17.8951
17.885
17.8748
17.8647
17.8546
17.8446
17.8346
17.8246
17.8147
17.8048
17.795
17.7853
17.7756
17.7659
17.7563
17.7468
17.7373
17.7279
17.7186
17.7093
17.7
17.6904
17.6804
17.6694
17.6565
17.6404
17.6186
17.5877
17.5418
17.4774
1.46329
1.41248
1.31067
1.17293
1.00374
0.80149
0.56603
0.297926
-0.00200562
-0.332561
-0.692088
-1.07824
-1.4879
-1.91682
-2.3591
-2.80652
-3.24862
-3.67321
-4.06778
-4.42037
-4.71798
-4.94188
-5.06374
-5.04975
-4.87782
-4.54296
-4.05376
-3.42839
-2.698
-1.8956
-1.04656
-0.171933
0.706165
1.57041
2.41122
3.22163
3.9972
4.73605
5.43793
6.10371
6.73498
7.3337
7.90195
8.44185
8.95539
9.44443
9.91063
10.3555
10.7804
11.1864
11.5747
11.9462
12.3017
12.6419
12.9675
13.2791
13.5771
13.8621
14.1344
14.3946
14.6429
14.8797
15.1054
15.3202
15.5246
15.7188
15.9032
16.078
16.2435
16.4001
16.548
16.6875
16.819
16.9426
17.0587
17.1676
17.2695
17.3647
17.4534
17.536
17.6126
17.6836
17.7492
17.8097
17.8652
17.9161
17.9625
18.0048
18.043
18.0775
18.1085
18.1361
18.1606
18.1822
18.2011
18.2174
18.2313
18.243
18.2527
18.2604
18.2664
18.2708
18.2737
18.2752
18.2755
18.2747
18.2728
18.2699
18.2663
18.2618
18.2567
18.2511
18.2448
18.2381
18.231
18.2234
18.2156
18.2075
18.1991
18.1905
18.1818
18.1729
18.1639
18.1547
18.1455
18.1362
18.1268
18.1174
18.1079
18.0984
18.0888
18.0792
18.0697
18.0601
18.0504
18.0408
18.0311
18.0214
18.0117
18.002
17.9923
17.9826
17.9729
17.9631
17.9533
17.9435
17.9336
17.9237
17.9137
17.9037
17.8936
17.8835
17.8735
17.8634
17.8533
17.8433
17.8333
17.8234
17.8134
17.8035
17.7935
17.7836
17.7736
17.7636
17.7535
17.7433
17.733
17.7226
17.712
17.7012
17.6898
17.6778
17.6647
17.6498
17.6322
17.6105
17.5821
17.5439
17.4904
17.4197
1.32223
1.28247
1.18958
1.0488
0.863183
0.633872
0.362588
0.0508712
-0.299827
-0.687871
-1.11127
-1.56753
-2.05336
-2.56414
-3.09324
-3.63143
-4.16699
-4.68658
-5.17668
-5.62367
-6.01028
-6.30924
-6.47828
-6.47246
-6.27397
-5.8852
-5.32033
-4.60193
-3.76262
-2.84329
-1.88014
-0.900412
0.0734815
1.02335
1.93732
2.80843
3.6335
4.41204
5.1454
5.83597
6.48668
7.10067
7.68099
8.23051
8.75185
9.24734
9.71902
10.1687
10.5978
11.0078
11.3999
11.7749
12.1338
12.4774
12.8063
13.1211
13.4224
13.7106
13.9861
14.2494
14.5009
14.7408
14.9696
15.1876
15.395
15.5923
15.7796
15.9574
16.126
16.2855
16.4363
16.5788
16.7131
16.8396
16.9586
17.0704
17.1752
17.2732
17.3649
17.4503
17.5298
17.6036
17.672
17.7352
17.7934
17.847
17.896
17.9408
17.9816
18.0186
18.0519
18.0819
18.1087
18.1325
18.1534
18.1717
18.1876
18.2012
18.2126
18.2221
18.2297
18.2356
18.24
18.243
18.2447
18.2452
18.2446
18.243
18.2406
18.2373
18.2334
18.2288
18.2237
18.218
18.2119
18.2053
18.1984
18.1912
18.1838
18.1761
18.1682
18.1601
18.1518
18.1434
18.1348
18.1262
18.1174
18.1086
18.0997
18.0907
18.0817
18.0726
18.0635
18.0543
18.0451
18.0359
18.0266
18.0173
18.0079
17.9985
17.9891
17.9796
17.9702
17.9607
17.9511
17.9414
17.9317
17.922
17.9121
17.9022
17.8923
17.8822
17.8722
17.8622
17.8522
17.8422
17.8322
17.8223
17.8123
17.8022
17.7922
17.782
17.7718
17.7614
17.7508
17.74
17.729
17.7176
17.7058
17.6934
17.6801
17.6657
17.6497
17.6312
17.6093
17.5825
17.5483
17.5038
17.4439
17.368
1.35783
1.33307
1.25266
1.11082
0.90904
0.651827
0.343237
-0.0137027
-0.416524
-0.862862
-1.35015
-1.87556
-2.43538
-3.02454
-3.63575
-4.25908
-4.88218
-5.49102
-6.07096
-6.6067
-7.07681
-7.44577
-7.6618
-7.67672
-7.46992
-7.04433
-6.41683
-5.61843
-4.68576
-3.6626
-2.59292
-1.51331
-0.451663
0.572555
1.5475
2.46732
3.33052
4.13848
4.89428
5.60189
6.26554
6.88942
7.47741
8.03301
8.55931
9.059
9.53437
9.98739
10.4197
10.8328
11.2279
11.6059
11.9678
12.3144
12.6464
12.9642
13.2685
13.5598
13.8384
14.1047
14.3592
14.6022
14.8339
15.0549
15.2653
15.4655
15.6558
15.8365
16.0079
16.1703
16.324
16.4693
16.6065
16.7359
16.8578
16.9723
17.0799
17.1808
17.2752
17.3635
17.4457
17.5223
17.5934
17.6593
17.7203
17.7765
17.8282
17.8756
17.919
17.9585
17.9943
18.0267
18.0558
18.0818
18.105
18.1254
18.1433
18.1589
18.1722
18.1834
18.1928
18.2004
18.2063
18.2109
18.214
18.2159
18.2166
18.2163
18.2151
18.213
18.2103
18.2069
18.2028
18.1982
18.1931
18.1875
18.1815
18.1753
18.1687
18.1619
18.1548
18.1475
18.1399
18.1322
18.1244
18.1164
18.1083
18.1
18.0917
18.0833
18.0747
18.0662
18.0575
18.0488
18.0401
18.0312
18.0223
18.0133
18.0043
17.9952
17.9861
17.9769
17.9677
17.9584
17.949
17.9396
17.9301
17.9205
17.9108
17.901
17.8911
17.8812
17.8712
17.8612
17.8513
17.8413
17.8313
17.8213
17.8113
17.8012
17.7909
17.7806
17.7701
17.7594
17.7484
17.737
17.7252
17.7128
17.6998
17.686
17.671
17.6543
17.6356
17.6138
17.5881
17.5566
17.5173
17.4673
17.4021
17.3219
1.61336
1.60782
1.54425
1.40456
1.18801
0.902803
0.555872
0.152181
-0.304326
-0.810128
-1.36187
-1.95587
-2.5878
-3.25206
-3.94089
-4.64389
-5.34821
-6.03981
-6.70415
-7.32362
-7.87121
-8.30428
-8.56538
-8.60543
-8.39837
-7.94459
-7.26145
-6.38468
-5.36254
-4.24857
-3.09344
-1.93875
-0.814879
0.258567
1.27097
2.21839
3.10141
3.92333
4.68886
5.40326
6.07171
6.6991
7.28982
7.84772
8.37611
8.87782
9.35523
9.81038
10.245
10.6605
11.058
11.4387
11.8033
12.1527
12.4875
12.8082
13.1154
13.4096
13.6912
13.9605
14.2179
14.4638
14.6985
14.9223
15.1356
15.3387
15.5319
15.7154
15.8897
16.0549
16.2115
16.3596
16.4996
16.6318
16.7564
16.8737
16.9841
17.0878
17.1849
17.2759
17.3609
17.4402
17.514
17.5826
17.6462
17.7051
17.7594
17.8094
17.8553
17.8973
17.9356
17.9704
18.0019
18.0303
18.0557
18.0783
18.0983
18.1159
18.1311
18.1443
18.1554
18.1647
18.1723
18.1784
18.1831
18.1865
18.1886
18.1896
18.1896
18.1888
18.1872
18.185
18.182
18.1784
18.1743
18.1698
18.1648
18.1595
18.1538
18.1478
18.1416
18.1351
18.1283
18.1213
18.1142
18.1068
18.0994
18.0917
18.084
18.0761
18.0681
18.06
18.0519
18.0436
18.0353
18.0269
18.0183
18.0097
18.001
17.9922
17.9834
17.9745
17.9655
17.9564
17.9473
17.938
17.9286
17.9192
17.9096
17.8999
17.8902
17.8803
17.8704
17.8605
17.8505
17.8406
17.8306
17.8206
17.8105
17.8003
17.7899
17.7794
17.7687
17.7576
17.7461
17.7342
17.7217
17.7085
17.6944
17.6791
17.6624
17.6438
17.6225
17.5978
17.5685
17.5331
17.4893
17.4346
17.3648
17.2809
2.09124
2.10113
2.04848
1.90803
1.67702
1.36537
0.981848
0.533021
0.0242823
-0.539483
-1.1538
-1.81394
-2.51469
-3.2495
-4.00973
-4.78433
-5.56028
-6.32349
-7.05853
-7.74444
-8.34705
-8.81087
-9.07014
-9.08933
-8.85546
-8.36388
-7.63186
-6.69961
-5.62261
-4.46078
-3.26853
-2.08865
-0.950559
0.12838
1.14015
2.08321
2.96006
3.77534
4.53462
5.24361
5.90771
6.53183
7.12031
7.67687
8.2047
8.70651
9.18459
9.6409
10.077
10.4944
10.894
11.2769
11.644
11.9959
12.3333
12.6567
12.9666
13.2634
13.5476