/*--------------------------------*- C++ -*----------------------------------*\
| =========                 |                                                 |
| \\      /  F ield         | OpenFOAM: The Open Source CFD Toolbox           |
|  \\    /   O peration     | Version:  2.2.x                                 |
|   \\  /    A nd           | Web:      www.OpenFOAM.org                      |
|    \\/     M anipulation  |                                                 |
\*---------------------------------------------------------------------------*/
FoamFile
{
    version     2.0;
    format      ascii;
    class       surfaceScalarField;
    location    "50";
    object      phi;
}
// * * * * * * * * * * * * * * * * * * * * * * * * * * * * * * * * * * * * * //

dimensions      [0 3 -1 0 0 0 0];

internalField   nonuniform List<scalar> 
24170
(
3.08791e-06
4.59842e-08
3.01339e-06
7.45076e-08
2.95038e-06
6.30155e-08
2.88691e-06
6.3476e-08
2.82581e-06
6.11039e-08
2.76845e-06
5.73506e-08
2.71485e-06
5.36077e-08
2.66466e-06
5.01849e-08
2.61754e-06
4.71194e-08
2.57317e-06
4.43791e-08
2.53123e-06
4.19362e-08
2.49148e-06
3.97533e-08
2.45365e-06
3.78259e-08
2.41745e-06
3.61997e-08
2.38231e-06
3.51275e-08
2.34693e-06
3.53799e-08
2.30747e-06
3.94641e-08
5.11092e-08
2.25637e-06
3.46831e-06
3.41284e-08
3.45703e-06
8.57903e-08
3.44154e-06
7.8499e-08
3.42539e-06
7.96187e-08
3.40748e-06
7.90243e-08
3.38817e-06
7.66634e-08
3.36774e-06
7.4041e-08
3.34638e-06
7.15379e-08
3.32426e-06
6.92285e-08
3.30156e-06
6.70822e-08
3.27841e-06
6.50838e-08
3.25496e-06
6.3206e-08
3.23134e-06
6.14434e-08
3.20765e-06
5.98871e-08
3.18386e-06
5.8925e-08
3.1597e-06
5.95405e-08
3.13527e-06
6.38872e-08
7.48008e-08
3.11159e-06
3.80892e-06
3.74042e-08
3.8169e-06
7.78176e-08
3.81813e-06
7.72635e-08
3.81884e-06
7.89021e-08
3.81789e-06
7.99776e-08
3.81518e-06
7.93779e-08
3.81099e-06
7.82305e-08
3.80552e-06
7.70101e-08
3.79889e-06
7.58529e-08
3.7912e-06
7.47713e-08
3.78253e-06
7.3748e-08
3.77299e-06
7.27522e-08
3.76264e-06
7.17822e-08
3.75149e-06
7.10452e-08
3.73911e-06
7.13003e-08
3.72417e-06
7.44813e-08
3.70422e-06
8.38346e-08
1.02149e-07
3.67687e-06
4.20567e-06
3.6293e-08
4.21417e-06
6.93179e-08
4.21743e-06
7.40048e-08
4.21961e-06
7.67185e-08
4.22074e-06
7.88436e-08
4.22072e-06
7.94009e-08
4.21971e-06
7.92314e-08
4.21784e-06
7.88941e-08
4.21512e-06
7.85707e-08
4.21156e-06
7.83241e-08
4.20716e-06
7.81379e-08
4.20194e-06
7.79917e-08
4.19578e-06
7.79424e-08
4.1883e-06
7.85207e-08
4.17834e-06
8.12588e-08
4.16387e-06
8.89521e-08
4.14303e-06
1.04661e-07
1.29443e-07
4.11574e-06
4.64032e-06
3.32753e-08
4.64748e-06
6.21627e-08
4.65125e-06
7.02311e-08
4.65384e-06
7.41365e-08
4.65565e-06
7.70341e-08
4.65654e-06
7.85028e-08
4.65657e-06
7.91986e-08
4.65577e-06
7.96918e-08
4.65416e-06
8.01897e-08
4.6517e-06
8.07824e-08
4.64836e-06
8.14695e-08
4.64407e-06
8.22754e-08
4.6386e-06
8.34081e-08
4.63129e-06
8.58359e-08
4.62079e-06
9.17651e-08
4.60549e-06
1.04262e-07
4.58472e-06
1.25441e-07
1.54679e-07
4.55949e-06
5.1179e-06
2.99666e-08
5.12424e-06
5.58243e-08
5.12846e-06
6.60045e-08
5.13147e-06
7.1139e-08
5.13368e-06
7.48313e-08
5.13499e-06
7.71907e-08
5.1354e-06
7.87727e-08
5.13497e-06
8.01218e-08
5.13368e-06
8.14894e-08
5.13147e-06
8.29881e-08
5.12829e-06
8.46514e-08
5.12399e-06
8.65667e-08
5.11824e-06
8.91601e-08
5.11027e-06
9.37909e-08
5.09892e-06
1.03115e-07
5.08318e-06
1.20002e-07
5.06315e-06
1.45458e-07
1.77459e-07
5.04037e-06
5.64406e-06
2.69146e-08
5.6498e-06
5.00847e-08
5.65427e-06
6.15341e-08
5.65757e-06
6.78324e-08
5.66005e-06
7.23578e-08
5.66163e-06
7.56092e-08
5.66231e-06
7.81017e-08
5.66208e-06
8.03441e-08
5.66094e-06
8.26296e-08
5.65882e-06
8.51045e-08
5.6556e-06
8.78667e-08
5.65108e-06
9.10892e-08
5.64484e-06
9.54002e-08
5.63618e-06
1.02449e-07
5.62424e-06
1.15053e-07
5.60858e-06
1.35656e-07
5.58986e-06
1.64177e-07
1.97473e-07
5.56985e-06
4.40816e-06
2.48739e-08
4.41186e-06
4.63899e-08
4.4151e-06
5.82886e-08
4.4176e-06
6.53253e-08
4.4195e-06
7.04556e-08
4.42078e-06
7.43306e-08
4.42141e-06
7.74757e-08
4.42138e-06
8.0387e-08
4.42064e-06
8.33618e-08
4.41916e-06
8.6593e-08
4.4168e-06
9.02169e-08
4.41338e-06
9.45076e-08
4.4086e-06
1.00193e-07
4.40203e-06
1.09017e-07
4.39335e-06
1.23738e-07
4.3826e-06
1.46413e-07
4.37047e-06
1.76306e-07
2.09643e-07
4.3583e-06
5.14191e-06
2.28227e-08
5.1456e-06
4.26982e-08
5.14904e-06
5.48516e-08
5.15181e-06
6.25492e-08
5.15399e-06
6.828e-08
5.15552e-06
7.27998e-08
5.15636e-06
7.66319e-08
5.15648e-06
8.02608e-08
5.15585e-06
8.40003e-08
5.15436e-06
8.80732e-08
5.15189e-06
9.2699e-08
5.1482e-06
9.81947e-08
5.143e-06
1.05389e-07
5.13601e-06
1.16013e-07
5.12714e-06
1.32605e-07
5.11674e-06
1.56816e-07
5.10566e-06
1.87377e-07
2.20049e-07
5.09526e-06
5.99782e-06
2.07911e-08
6.00145e-06
3.90669e-08
6.00503e-06
5.12715e-08
6.00807e-06
5.95173e-08
6.01054e-06
6.58125e-08
6.01237e-06
7.0968e-08
6.0135e-06
7.55014e-08
6.01387e-06
7.98725e-08
6.01346e-06
8.44241e-08
6.01214e-06
8.93941e-08
6.00978e-06
9.50539e-08
6.00616e-06
1.01813e-07
6.00104e-06
1.10492e-07
5.99434e-06
1.22713e-07
5.98625e-06
1.40695e-07
5.97737e-06
1.6569e-07
5.96866e-06
1.9609e-07
2.27357e-07
5.96135e-06
6.99625e-06
1.8805e-08
6.99977e-06
3.55426e-08
7.00347e-06
4.75785e-08
7.00677e-06
5.62215e-08
7.00957e-06
6.30173e-08
7.01177e-06
6.87694e-08
7.01329e-06
7.39831e-08
7.01407e-06
7.90922e-08
7.01407e-06
8.4426e-08
7.01319e-06
9.0273e-08
7.01132e-06
9.69296e-08
7.00829e-06
1.0483e-07
7.00403e-06
1.14757e-07
6.99864e-06
1.28103e-07
6.9926e-06
1.46729e-07
6.98671e-06
1.71585e-07
6.98188e-06
2.00922e-07
2.30062e-07
6.97917e-06
8.16094e-06
1.68785e-08
8.16435e-06
3.21314e-08
8.16816e-06
4.37781e-08
8.17175e-06
5.26237e-08
8.17494e-06
5.98173e-08
8.17763e-06
6.60857e-08
8.17972e-06
7.18993e-08
8.18114e-06
7.7659e-08
8.18187e-06
8.37017e-08
8.18183e-06
9.03036e-08
8.18099e-06
9.7776e-08
8.17931e-06
1.06517e-07
8.17688e-06
1.17192e-07
8.17406e-06
1.30929e-07
8.17157e-06
1.49218e-07
8.17031e-06
1.72844e-07
8.17109e-06
2.00142e-07
2.26462e-07
8.17469e-06
9.51961e-06
1.50033e-08
9.52295e-06
2.87909e-08
9.52689e-06
3.98457e-08
9.53085e-06
4.86711e-08
9.53457e-06
5.60923e-08
9.53794e-06
6.27172e-08
9.54086e-06
6.89849e-08
9.54328e-06
7.5242e-08
9.54518e-06
8.17984e-08
9.54658e-06
8.89119e-08
9.54752e-06
9.68441e-08
9.5481e-06
1.05931e-07
9.54863e-06
1.16663e-07
9.5497e-06
1.29858e-07
9.55226e-06
1.46664e-07
9.55728e-06
1.67821e-07
9.56545e-06
1.91973e-07
2.14714e-07
9.57719e-06
1.11046e-05
1.314e-08
1.11079e-05
2.54218e-08
1.11121e-05
3.56659e-08
1.11166e-05
4.42081e-08
1.1121e-05
5.16165e-08
1.11254e-05
5.83796e-08
1.11295e-05
6.48573e-08
1.11334e-05
7.13502e-08
1.11371e-05
7.81007e-08
1.11407e-05
8.53276e-08
1.11443e-05
9.32297e-08
1.11482e-05
1.02026e-07
1.11528e-05
1.12015e-07
1.1159e-05
1.23696e-07
1.11678e-05
1.37872e-07
1.11804e-05
1.55253e-07
1.11974e-05
1.74971e-07
1.93134e-07
1.1219e-05
1.29536e-05
1.12196e-08
1.29571e-05
2.18865e-08
1.29617e-05
3.1061e-08
1.29669e-05
3.9e-08
1.29724e-05
4.60794e-08
1.29782e-05
5.26614e-08
1.2984e-05
5.90201e-08
1.299e-05
6.53701e-08
1.29962e-05
7.18943e-08
1.30028e-05
7.87278e-08
1.301e-05
8.59949e-08
1.30182e-05
9.37921e-08
1.3028e-05
1.02244e-07
1.30401e-05
1.11572e-07
1.30558e-05
1.22218e-07
1.30763e-05
1.34732e-07
1.31026e-05
1.48678e-07
1.60918e-07
1.31348e-05
1.51105e-05
9.12747e-09
1.51145e-05
1.79512e-08
1.51198e-05
2.57399e-08
1.51261e-05
3.26943e-08
1.51331e-05
3.90648e-08
1.51407e-05
4.50681e-08
1.51489e-05
5.08904e-08
1.51576e-05
5.66551e-08
1.5167e-05
6.24567e-08
1.51774e-05
6.83508e-08
1.5189e-05
7.43641e-08
1.52023e-05
8.05056e-08
1.52178e-05
8.67669e-08
1.52362e-05
9.3172e-08
1.52586e-05
9.98491e-08
1.52863e-05
1.07018e-07
1.53207e-05
1.14305e-07
1.19251e-07
1.53623e-05
1.76269e-05
6.69525e-09
1.76315e-05
1.32913e-08
1.7638e-05
1.92857e-08
1.76459e-05
2.48194e-08
1.76549e-05
3.00336e-08
1.76649e-05
3.50334e-08
1.76759e-05
3.98841e-08
1.7688e-05
4.46243e-08
1.77012e-05
4.92489e-08
1.77158e-05
5.37501e-08
1.77321e-05
5.80736e-08
1.77504e-05
6.21514e-08
1.77713e-05
6.58951e-08
1.77953e-05
6.92126e-08
1.78231e-05
7.20166e-08
1.7856e-05
7.41463e-08
1.78954e-05
7.48748e-08
7.19021e-08
1.79428e-05
1.78288e-05
4.10927e-09
1.78338e-05
8.29619e-09
1.78408e-05
1.22765e-08
1.78494e-05
1.6171e-08
1.78595e-05
2.00186e-08
1.78707e-05
2.38183e-08
1.7883e-05
2.75379e-08
1.78965e-05
3.11359e-08
1.79112e-05
3.45516e-08
1.79273e-05
3.76967e-08
1.79449e-05
4.04804e-08
1.79642e-05
4.27894e-08
1.79856e-05
4.44989e-08
1.80094e-05
4.54579e-08
1.80359e-05
4.5457e-08
1.8066e-05
4.40538e-08
1.81009e-05
4.00546e-08
3.08635e-08
1.81419e-05
1.58838e-05
1.60559e-09
1.58887e-05
3.45953e-09
1.58955e-05
5.49393e-09
1.59038e-05
7.81607e-09
1.59135e-05
1.03849e-08
1.59242e-05
1.30934e-08
1.59359e-05
1.58405e-08
1.59485e-05
1.85076e-08
1.5962e-05
2.10048e-08
1.59765e-05
2.32029e-08
1.5992e-05
2.49849e-08
1.60086e-05
2.62216e-08
1.60263e-05
2.67765e-08
1.60453e-05
2.64847e-08
1.60657e-05
2.50837e-08
1.60877e-05
2.19807e-08
1.61121e-05
1.56938e-08
3.32844e-09
1.61396e-05
1.41511e-05
-8.15684e-10
1.41558e-05
-1.26401e-09
1.41624e-05
-1.11256e-09
1.41705e-05
-2.30697e-10
1.41796e-05
1.22423e-09
1.41897e-05
3.02322e-09
1.42006e-05
4.98985e-09
1.42121e-05
6.98591e-09
1.42242e-05
8.85759e-09
1.4237e-05
1.04809e-08
1.42502e-05
1.17276e-08
1.4264e-05
1.24741e-08
1.42782e-05
1.25921e-08
1.42927e-05
1.19258e-08
1.43076e-05
1.0212e-08
1.43227e-05
6.84391e-09
1.43381e-05
2.93543e-10
-1.24474e-08
1.43539e-05
1.26074e-05
-3.16675e-09
1.2612e-05
-5.92202e-09
1.26185e-05
-7.59569e-09
1.26263e-05
-7.98601e-09
1.2635e-05
-7.46007e-09
1.26444e-05
-6.38273e-09
1.26544e-05
-4.99783e-09
1.26648e-05
-3.46416e-09
1.26756e-05
-1.96028e-09
1.26867e-05
-6.21763e-10
1.2698e-05
4.29502e-10
1.27094e-05
1.0889e-09
1.27208e-05
1.25144e-09
1.27319e-05
7.93928e-10
1.27426e-05
-4.92794e-10
1.27526e-05
-3.11536e-09
1.27613e-05
-8.43783e-09
-1.934e-08
1.27682e-05
1.1232e-05
-5.37445e-09
1.12367e-05
-1.05774e-08
1.12431e-05
-1.40368e-08
1.12506e-05
-1.54773e-08
1.12588e-05
-1.56701e-08
1.12676e-05
-1.51573e-08
1.12767e-05
-1.41697e-08
1.12862e-05
-1.29296e-08
1.12959e-05
-1.16144e-08
1.13056e-05
-1.0369e-08
1.13153e-05
-9.30191e-09
1.13249e-05
-8.50021e-09
1.13342e-05
-8.03405e-09
1.1343e-05
-7.97307e-09
1.13509e-05
-8.44346e-09
1.13576e-05
-9.79229e-09
1.13622e-05
-1.30598e-08
-2.07291e-08
1.13636e-05
1.00066e-05
-7.32584e-09
1.00113e-05
-1.53328e-08
1.00178e-05
-2.05114e-08
1.0025e-05
-2.2695e-08
1.00327e-05
-2.3406e-08
1.00409e-05
-2.32962e-08
1.00493e-05
-2.25686e-08
1.00578e-05
-2.14807e-08
1.00665e-05
-2.0234e-08
1.00751e-05
-1.89702e-08
1.00835e-05
-1.77852e-08
1.00918e-05
-1.67417e-08
1.00996e-05
-1.5874e-08
1.01069e-05
-1.52082e-08
1.01132e-05
-1.47833e-08
1.01182e-05
-1.47614e-08
1.01209e-05
-1.57907e-08
-1.97542e-08
1.01199e-05
8.91458e-06
-8.8076e-09
8.91955e-06
-2.03001e-08
8.92603e-06
-2.69882e-08
8.9329e-06
-2.95496e-08
8.94012e-06
-3.06409e-08
8.94763e-06
-3.07918e-08
8.95526e-06
-3.02007e-08
8.96294e-06
-2.91621e-08
8.97061e-06
-2.79079e-08
8.97821e-06
-2.65719e-08
8.98566e-06
-2.52331e-08
8.99286e-06
-2.39343e-08
8.99968e-06
-2.26902e-08
9.00596e-06
-2.14861e-08
9.01147e-06
-2.02856e-08
9.01581e-06
-1.90966e-08
9.01823e-06
-1.81994e-08
-1.87662e-08
9.01724e-06
7.94143e-06
-9.55283e-09
7.94684e-06
-2.57188e-08
7.9532e-06
-3.33418e-08
7.95958e-06
-3.59309e-08
7.96627e-06
-3.73213e-08
7.97312e-06
-3.76361e-08
7.97998e-06
-3.70648e-08
7.98683e-06
-3.60033e-08
7.99362e-06
-3.46964e-08
8.00031e-06
-3.32617e-08
8.00685e-06
-3.17689e-08
8.01317e-06
-3.02524e-08
8.01919e-06
-2.87085e-08
8.02479e-06
-2.70907e-08
8.02981e-06
-2.53166e-08
8.03401e-06
-2.32981e-08
8.03686e-06
-2.10569e-08
-1.91369e-08
8.03723e-06
7.07334e-06
-8.55773e-09
7.07982e-06
-3.22012e-08
7.08578e-06
-3.92932e-08
7.09145e-06
-4.16161e-08
7.09746e-06
-4.33245e-08
7.10357e-06
-4.37441e-08
7.10966e-06
-4.3154e-08
7.11571e-06
-4.20504e-08
7.12169e-06
-4.06751e-08
7.12757e-06
-3.91412e-08
7.13332e-06
-3.75135e-08
7.13888e-06
-3.58192e-08
7.14421e-06
-3.40429e-08
7.14926e-06
-3.21336e-08
7.15393e-06
-2.99936e-08
7.15811e-06
-2.7479e-08
7.1615e-06
-2.4444e-08
-2.0952e-08
7.16332e-06
6.29746e-06
-3.52676e-09
6.30635e-06
-4.11088e-08
6.31221e-06
-4.51662e-08
6.31754e-06
-4.69498e-08
6.32293e-06
-4.87222e-08
6.3281e-06
-4.89224e-08
6.33309e-06
-4.81485e-08
6.33798e-06
-4.6939e-08
6.34278e-06
-4.54796e-08
6.34749e-06
-4.3854e-08
6.35208e-06
-4.21142e-08
6.35654e-06
-4.02814e-08
6.36086e-06
-3.83557e-08
6.36501e-06
-3.62902e-08
6.369e-06
-3.39891e-08
6.37281e-06
-3.12955e-08
6.37638e-06
-2.80159e-08
-2.40134e-08
6.37944e-06
5.60137e-06
1.00035e-08
5.61151e-06
-5.12386e-08
5.61643e-06
-5.00908e-08
5.62193e-06
-5.24551e-08
5.6272e-06
-5.39932e-08
5.63166e-06
-5.33906e-08
5.63548e-06
-5.19541e-08
5.6388e-06
-5.02518e-08
5.64173e-06
-4.84037e-08
5.64433e-06
-4.64547e-08
5.64666e-06
-4.44386e-08
5.64876e-06
-4.23755e-08
5.65068e-06
-4.02687e-08
5.65247e-06
-3.80784e-08
5.6542e-06
-3.57216e-08
5.65597e-06
-3.30621e-08
5.65783e-06
-2.9869e-08
-2.57066e-08
5.65952e-06
5.0091e-06
3.21662e-09
5.00593e-06
-4.80695e-08
4.99829e-06
-4.24389e-08
4.99268e-06
-4.68437e-08
4.98714e-06
-4.8452e-08
4.98127e-06
-4.75128e-08
4.97499e-06
-4.56798e-08
4.96829e-06
-4.35508e-08
4.96119e-06
-4.13032e-08
4.95376e-06
-3.90212e-08
4.94608e-06
-3.67559e-08
4.93826e-06
-3.45524e-08
4.9304e-06
-3.24069e-08
4.92264e-06
-3.03087e-08
4.91513e-06
-2.82132e-08
4.90811e-06
-2.60525e-08
4.90193e-06
-2.36902e-08
-2.0587e-08
4.8968e-06
4.45977e-06
4.4117e-06
4.36927e-06
4.32243e-06
4.27397e-06
4.22646e-06
4.18078e-06
4.13723e-06
4.09592e-06
4.0569e-06
4.02014e-06
3.98559e-06
3.95318e-06
3.92287e-06
3.89466e-06
3.86861e-06
3.84492e-06
3.82434e-06
-2.59491e-07
2.595e-07
-5.31637e-07
2.72107e-07
-7.89172e-07
2.57487e-07
-1.02843e-06
2.3928e-07
-1.25023e-06
2.21801e-07
-1.45574e-06
2.05525e-07
-1.64603e-06
1.90289e-07
-1.82197e-06
1.75949e-07
-1.9844e-06
1.62418e-07
-2.13404e-06
1.49638e-07
-2.27161e-06
1.37564e-07
-2.39775e-06
1.26144e-07
-2.51309e-06
1.15322e-07
-2.61812e-06
1.05035e-07
-2.71333e-06
9.52099e-08
-2.7991e-06
8.57741e-08
-2.87576e-06
7.66652e-08
-2.94358e-06
6.78195e-08
-3.00276e-06
5.91771e-08
-3.05345e-06
5.06823e-08
-3.09573e-06
4.22732e-08
-3.12961e-06
3.38907e-08
-3.15511e-06
2.55023e-08
-3.17221e-06
1.71062e-08
-3.18093e-06
8.71793e-09
-3.1813e-06
3.69565e-10
-3.17338e-06
-7.91166e-09
-3.15725e-06
-1.61132e-08
-3.13304e-06
-2.4212e-08
-3.10088e-06
-3.21559e-08
-3.06098e-06
-3.98865e-08
-3.01363e-06
-4.73493e-08
-2.95914e-06
-5.44917e-08
-2.89787e-06
-6.1266e-08
-2.83023e-06
-6.76339e-08
-2.75667e-06
-7.35651e-08
-2.67763e-06
-7.90336e-08
-2.59361e-06
-8.40211e-08
-2.50509e-06
-8.85165e-08
-2.41259e-06
-9.2512e-08
-2.31659e-06
-9.60073e-08
-2.21758e-06
-9.90099e-08
-2.11605e-06
-1.0154e-07
-2.01244e-06
-1.03628e-07
-1.90713e-06
-1.05308e-07
-1.80051e-06
-1.06631e-07
-1.69288e-06
-1.07649e-07
-1.5845e-06
-1.08403e-07
-1.47557e-06
-1.08941e-07
-1.36626e-06
-1.09311e-07
-1.25673e-06
-1.09538e-07
-1.1471e-06
-1.09623e-07
-1.03752e-06
-1.09584e-07
-9.2802e-07
-1.09482e-07
-8.18663e-07
-1.09321e-07
-7.0982e-07
-1.08808e-07
-6.0161e-07
-1.08179e-07
-4.93139e-07
-1.08442e-07
-3.8319e-07
-1.09939e-07
-2.70859e-07
-1.12345e-07
-1.56386e-07
-1.14471e-07
-3.96387e-08
-1.16729e-07
7.89088e-08
-1.18528e-07
1.97167e-07
-1.18238e-07
3.14005e-07
-1.16809e-07
4.28939e-07
-1.14911e-07
5.41786e-07
-1.12834e-07
6.52497e-07
-1.10699e-07
7.61063e-07
-1.08556e-07
8.67497e-07
-1.06423e-07
9.71814e-07
-1.0431e-07
1.07404e-06
-1.0222e-07
1.17418e-06
-1.00148e-07
1.27226e-06
-9.80887e-08
1.36828e-06
-9.604e-08
1.46226e-06
-9.39968e-08
1.5542e-06
-9.19564e-08
1.64412e-06
-8.99216e-08
1.73202e-06
-8.78917e-08
1.81788e-06
-8.58617e-08
1.90171e-06
-8.38321e-08
1.98353e-06
-8.18097e-08
2.06334e-06
-7.97995e-08
2.14115e-06
-7.78014e-08
2.21695e-06
-7.5812e-08
2.29077e-06
-7.38272e-08
2.36261e-06
-7.18456e-08
2.43249e-06
-6.98716e-08
2.50041e-06
-6.79111e-08
2.56638e-06
-6.59662e-08
2.63042e-06
-6.4035e-08
2.69254e-06
-6.21167e-08
2.75275e-06
-6.02129e-08
2.81107e-06
-5.8325e-08
2.86752e-06
-5.64534e-08
2.92211e-06
-5.45981e-08
2.97488e-06
-5.27605e-08
3.02583e-06
-5.09435e-08
3.07499e-06
-4.91504e-08
3.12238e-06
-4.7384e-08
3.16804e-06
-4.56456e-08
3.21198e-06
-4.39345e-08
3.25423e-06
-4.22488e-08
3.29482e-06
-4.05872e-08
3.33377e-06
-3.89503e-08
3.37111e-06
-3.73401e-08
3.40686e-06
-3.57596e-08
3.44107e-06
-3.42109e-08
3.47377e-06
-3.26949e-08
3.50498e-06
-3.12105e-08
3.53473e-06
-2.97568e-08
3.56307e-06
-2.83351e-08
3.59002e-06
-2.69489e-08
3.61562e-06
-2.56005e-08
3.6399e-06
-2.42884e-08
3.66291e-06
-2.30088e-08
3.68466e-06
-2.17594e-08
3.7052e-06
-2.05418e-08
3.72455e-06
-1.93585e-08
3.74276e-06
-1.82098e-08
3.75985e-06
-1.70932e-08
3.77586e-06
-1.60078e-08
3.79082e-06
-1.49555e-08
3.80475e-06
-1.39385e-08
3.8177e-06
-1.2956e-08
3.8297e-06
-1.20056e-08
3.84079e-06
-1.1085e-08
3.85097e-06
-1.01935e-08
3.8603e-06
-9.33022e-09
3.86879e-06
-8.49473e-09
3.87648e-06
-7.68721e-09
3.88338e-06
-6.9064e-09
3.88953e-06
-6.14983e-09
3.89494e-06
-5.41722e-09
3.89965e-06
-4.7129e-09
3.90368e-06
-4.03991e-09
3.90706e-06
-3.39412e-09
3.90983e-06
-2.76898e-09
3.91201e-06
-2.16598e-09
3.9136e-06
-1.5945e-09
3.91466e-06
-1.06299e-09
3.91523e-06
-5.79299e-10
3.91537e-06
-1.37674e-10
3.91509e-06
2.80417e-10
3.91441e-06
6.90538e-10
3.9133e-06
1.10606e-09
3.91178e-06
1.5224e-09
3.90985e-06
1.928e-09
3.90752e-06
2.32774e-09
3.90479e-06
2.72548e-09
3.90167e-06
3.11718e-09
3.89815e-06
3.50939e-09
3.89424e-06
3.90402e-09
3.88995e-06
4.29396e-09
3.88526e-06
4.68274e-09
3.88019e-06
5.07037e-09
3.87474e-06
5.4589e-09
3.86889e-06
5.85318e-09
3.86264e-06
6.25484e-09
3.85598e-06
6.66282e-09
3.84889e-06
7.08127e-09
3.84135e-06
7.53761e-09
3.83335e-06
8.02205e-09
3.8248e-06
8.54513e-09
3.8157e-06
9.12298e-09
3.80594e-06
9.77162e-09
3.79542e-06
1.05209e-08
3.78404e-06
1.13943e-08
3.7716e-06
1.24357e-08
3.75789e-06
1.37117e-08
3.74259e-06
1.53097e-08
3.72524e-06
1.73439e-08
3.70526e-06
1.99871e-08
3.68173e-06
2.35259e-08
3.65332e-06
2.84111e-08
3.61793e-06
3.53976e-08
3.57198e-06
4.59425e-08
3.50865e-06
6.33418e-08
3.41134e-06
9.73024e-08
1.91725e-07
3.21963e-06
-2.09504e-07
4.6902e-07
-4.16014e-07
4.7862e-07
-6.19709e-07
4.61153e-07
-8.17461e-07
4.37008e-07
-1.00646e-06
4.10789e-07
-1.18529e-06
3.84332e-07
-1.35333e-06
3.58316e-07
-1.51044e-06
3.33062e-07
-1.65678e-06
3.08751e-07
-1.79261e-06
2.85487e-07
-1.91834e-06
2.63295e-07
-2.03435e-06
2.42153e-07
-2.14101e-06
2.21993e-07
-2.2387e-06
2.02713e-07
-2.3277e-06
1.84198e-07
-2.40825e-06
1.6632e-07
-2.48054e-06
1.48953e-07
-2.5447e-06
1.31975e-07
-2.60079e-06
1.15273e-07
-2.64883e-06
9.87354e-08
-2.68883e-06
8.22704e-08
-2.72076e-06
6.58091e-08
-2.74456e-06
4.93038e-08
-2.76021e-06
3.27388e-08
-2.76763e-06
1.61357e-08
-2.76681e-06
-4.59452e-10
-2.75773e-06
-1.70047e-08
-2.74042e-06
-3.34457e-08
-2.71495e-06
-4.96913e-08
-2.68149e-06
-6.56323e-08
-2.64023e-06
-8.1151e-08
-2.59146e-06
-9.61299e-08
-2.5355e-06
-1.10461e-07
-2.47272e-06
-1.24051e-07
-2.40354e-06
-1.36822e-07
-2.3284e-06
-1.48709e-07
-2.24777e-06
-1.59665e-07
-2.16213e-06
-1.69662e-07
-2.07196e-06
-1.78686e-07
-1.97772e-06
-1.86736e-07
-1.87989e-06
-1.93824e-07
-1.77891e-06
-1.9998e-07
-1.6752e-06
-2.05242e-07
-1.56913e-06
-2.09669e-07
-1.46108e-06
-2.13338e-07
-1.35137e-06
-2.16324e-07
-1.2403e-06
-2.18708e-07
-1.12812e-06
-2.20571e-07
-1.01505e-06
-2.21997e-07
-9.0126e-07
-2.23085e-07
-7.86855e-07
-2.23936e-07
-6.71865e-07
-2.2462e-07
-5.56259e-07
-2.25198e-07
-4.3989e-07
-2.25867e-07
-3.22203e-07
-2.27032e-07
-2.02357e-07
-2.28679e-07
-8.0299e-08
-2.30252e-07
4.26779e-08
-2.31423e-07
1.65068e-07
-2.32329e-07
2.85951e-07
-2.33213e-07
4.05155e-07
-2.33655e-07
5.21814e-07
-2.33395e-07
6.35632e-07
-2.32375e-07
7.47778e-07
-2.30412e-07
8.5869e-07
-2.27747e-07
9.68393e-07
-2.24641e-07
1.0768e-06
-2.21266e-07
1.18382e-06
-2.17726e-07
1.28935e-06
-2.14086e-07
1.39331e-06
-2.10384e-07
1.49564e-06
-2.0664e-07
1.5963e-06
-2.02864e-07
1.69523e-06
-1.99064e-07
1.7924e-06
-1.95246e-07
1.88779e-06
-1.91411e-07
1.98139e-06
-1.87561e-07
2.07315e-06
-1.83701e-07
2.16308e-06
-1.79833e-07
2.25117e-06
-1.75963e-07
2.33741e-06
-1.72092e-07
2.4218e-06
-1.68219e-07
2.50433e-06
-1.64345e-07
2.58501e-06
-1.60475e-07
2.66382e-06
-1.56616e-07
2.74079e-06
-1.52769e-07
2.8159e-06
-1.48934e-07
2.88918e-06
-1.45113e-07
2.96062e-06
-1.4131e-07
3.03022e-06
-1.37529e-07
3.09802e-06
-1.3377e-07
3.16402e-06
-1.30036e-07
3.22824e-06
-1.2633e-07
3.29069e-06
-1.22656e-07
3.35139e-06
-1.19016e-07
3.41036e-06
-1.15411e-07
3.46761e-06
-1.11843e-07
3.52317e-06
-1.08313e-07
3.57705e-06
-1.04826e-07
3.62928e-06
-1.01383e-07
3.67988e-06
-9.7987e-08
3.72887e-06
-9.46389e-08
3.77628e-06
-9.13399e-08
3.82213e-06
-8.80915e-08
3.86645e-06
-8.48961e-08
3.90927e-06
-8.17562e-08
3.95061e-06
-7.86741e-08
3.99051e-06
-7.56512e-08
4.02899e-06
-7.26875e-08
4.06607e-06
-6.97818e-08
4.10179e-06
-6.69332e-08
4.13616e-06
-6.41427e-08
4.16923e-06
-6.14133e-08
4.20102e-06
-5.87481e-08
4.23156e-06
-5.61471e-08
4.26088e-06
-5.36078e-08
4.289e-06
-5.11278e-08
4.31595e-06
-4.87073e-08
4.34176e-06
-4.63486e-08
4.36646e-06
-4.40523e-08
4.39006e-06
-4.18164e-08
4.41261e-06
-3.96383e-08
4.43411e-06
-3.75176e-08
4.4546e-06
-3.5455e-08
4.4741e-06
-3.34502e-08
4.49264e-06
-3.15011e-08
4.51023e-06
-2.96051e-08
4.52689e-06
-2.77603e-08
4.54266e-06
-2.59646e-08
4.55754e-06
-2.42174e-08
4.57157e-06
-2.25186e-08
4.58475e-06
-2.08685e-08
4.5971e-06
-1.92644e-08
4.60865e-06
-1.77038e-08
4.61941e-06
-1.6187e-08
4.6294e-06
-1.47159e-08
4.63864e-06
-1.32894e-08
4.64715e-06
-1.19029e-08
4.65493e-06
-1.05529e-08
4.66201e-06
-9.24103e-09
4.66838e-06
-7.97173e-09
4.67407e-06
-6.74837e-09
4.67904e-06
-5.56646e-09
4.68332e-06
-4.41712e-09
4.6869e-06
-3.29896e-09
4.68983e-06
-2.22211e-09
4.69214e-06
-1.19602e-09
4.69386e-06
-2.06406e-10
4.69501e-06
7.69011e-10
4.69559e-06
1.73587e-09
4.69561e-06
2.69421e-09
4.69508e-06
3.64278e-09
4.69401e-06
4.58426e-09
4.69239e-06
5.51978e-09
4.69024e-06
6.44613e-09
4.68756e-06
7.36663e-09
4.68435e-06
8.28314e-09
4.68061e-06
9.19944e-09
4.67633e-06
1.01243e-08
4.67153e-06
1.10593e-08
4.66617e-06
1.2013e-08
4.66027e-06
1.30001e-08
4.65379e-06
1.40391e-08
4.6467e-06
1.51347e-08
4.63896e-06
1.63037e-08
4.63052e-06
1.75794e-08
4.6213e-06
1.89952e-08
4.61121e-06
2.06087e-08
4.60013e-06
2.24763e-08
4.58786e-06
2.46913e-08
4.57419e-06
2.73844e-08
4.55878e-06
3.07096e-08
4.54119e-06
3.4924e-08
4.52081e-06
4.03832e-08
4.49671e-06
4.76398e-08
4.46753e-06
5.75984e-08
4.43118e-06
7.17521e-08
4.38417e-06
9.29561e-08
4.32052e-06
1.27001e-07
4.22946e-06
1.88352e-07
3.06021e-07
4.11517e-06
-1.61062e-07
6.30058e-07
-3.28766e-07
6.46366e-07
-4.9503e-07
6.27417e-07
-6.57762e-07
5.99744e-07
-8.15147e-07
5.68177e-07
-9.65968e-07
5.35156e-07
-1.10959e-06
5.01939e-07
-1.24576e-06
4.69226e-07
-1.37444e-06
4.37419e-07
-1.49571e-06
4.06744e-07
-1.6097e-06
3.77278e-07
-1.71655e-06
3.48999e-07
-1.81636e-06
3.21812e-07
-1.90922e-06
2.95575e-07
-1.99514e-06
2.70122e-07
-2.07411e-06
2.45284e-07
-2.14605e-06
2.2089e-07
-2.21085e-06
1.96777e-07
-2.26838e-06
1.72795e-07
-2.31846e-06
1.48816e-07
-2.36093e-06
1.2473e-07
-2.39558e-06
1.0046e-07
-2.42224e-06
7.59623e-08
-2.44071e-06
5.12261e-08
-2.45085e-06
2.62759e-08
-2.45248e-06
1.17529e-09
-2.4455e-06
-2.39699e-08
-2.42991e-06
-4.90223e-08
-2.40579e-06
-7.38077e-08
-2.37329e-06
-9.81282e-08
-2.33264e-06
-1.21787e-07
-2.28416e-06
-1.44601e-07
-2.22823e-06
-1.66398e-07
-2.16525e-06
-1.87028e-07
-2.0957e-06
-2.06371e-07
-2.02006e-06
-2.24339e-07
-1.93885e-06
-2.40872e-07
-1.85258e-06
-2.55936e-07
-1.76175e-06
-2.69521e-07
-1.66684e-06
-2.81648e-07
-1.56832e-06
-2.92353e-07
-1.4666e-06
-3.01694e-07
-1.3621e-06
-3.09753e-07
-1.25516e-06
-3.1662e-07
-1.1461e-06
-3.224e-07
-1.03522e-06
-3.27206e-07
-9.22768e-07
-3.31157e-07
-8.08959e-07
-3.3437e-07
-6.93979e-07
-3.3697e-07
-5.77956e-07
-3.39105e-07
-4.60917e-07
-3.40969e-07
-3.42718e-07
-3.42809e-07
-2.23008e-07
-3.44896e-07
-1.01753e-07
-3.47112e-07
2.01811e-08
-3.48956e-07
1.41739e-07
-3.50228e-07
2.62425e-07
-3.50935e-07
3.82052e-07
-3.51053e-07
5.00369e-07
-3.50651e-07
6.1695e-07
-3.49802e-07
7.31686e-07
-3.48397e-07
8.44619e-07
-3.4633e-07
9.55838e-07
-3.43591e-07
1.06563e-06
-3.40198e-07
1.17414e-06
-3.36259e-07
1.28141e-06
-3.319e-07
1.38738e-06
-3.2723e-07
1.49199e-06
-3.22335e-07
1.59517e-06
-3.17272e-07
1.69687e-06
-3.12082e-07
1.79702e-06
-3.06792e-07
1.89557e-06
-3.01423e-07
1.99249e-06
-2.9599e-07
2.08774e-06
-2.90502e-07
2.1813e-06
-2.84966e-07
2.27314e-06
-2.79394e-07
2.36324e-06
-2.73794e-07
2.45157e-06
-2.68169e-07
2.53814e-06
-2.62527e-07
2.62293e-06
-2.56873e-07
2.70593e-06
-2.51213e-07
2.78714e-06
-2.4555e-07
2.86654e-06
-2.39889e-07
2.94416e-06
-2.34235e-07
3.01998e-06
-2.28592e-07
3.09402e-06
-2.22964e-07
3.16627e-06
-2.17358e-07
3.23674e-06
-2.11778e-07
3.30543e-06
-2.06228e-07
3.37237e-06
-2.0071e-07
3.43757e-06
-1.95229e-07
3.50102e-06
-1.89789e-07
3.56276e-06
-1.84394e-07
3.62279e-06
-1.79047e-07
3.68114e-06
-1.73753e-07
3.73782e-06
-1.68516e-07
3.79285e-06
-1.63339e-07
3.84626e-06
-1.58225e-07
3.89806e-06
-1.53179e-07
3.94828e-06
-1.48203e-07
3.99695e-06
-1.43297e-07
4.04408e-06
-1.38465e-07
4.0897e-06
-1.33708e-07
4.13383e-06
-1.29031e-07
4.17651e-06
-1.24436e-07
4.21777e-06
-1.19925e-07
4.25762e-06
-1.15501e-07
4.2961e-06
-1.11164e-07
4.33323e-06
-1.06914e-07
4.36905e-06
-1.0275e-07
4.40358e-06
-9.86751e-08
4.43686e-06
-9.46915e-08
4.46891e-06
-9.08003e-08
4.49976e-06
-8.69995e-08
4.52944e-06
-8.32862e-08
4.55797e-06
-7.96593e-08
4.58538e-06
-7.612e-08
4.6117e-06
-7.267e-08
4.63695e-06
-6.93084e-08
4.66117e-06
-6.60323e-08
4.68437e-06
-6.28398e-08
4.70658e-06
-5.97302e-08
4.72783e-06
-5.67032e-08
4.74813e-06
-5.37574e-08
4.76752e-06
-5.089e-08
4.78601e-06
-4.80976e-08
4.80362e-06
-4.53769e-08
4.82039e-06
-4.27259e-08
4.83631e-06
-4.01435e-08
4.85142e-06
-3.76301e-08
4.86573e-06
-3.51841e-08
4.87927e-06
-3.28021e-08
4.89204e-06
-3.0482e-08
4.90408e-06
-2.82236e-08
4.91538e-06
-2.60263e-08
4.92598e-06
-2.38871e-08
4.93588e-06
-2.18028e-08
4.9451e-06
-1.97719e-08
4.95365e-06
-1.77935e-08
4.96155e-06
-1.58681e-08
4.96879e-06
-1.39977e-08
4.97541e-06
-1.21804e-08
4.9814e-06
-1.04058e-08
4.98677e-06
-8.66618e-09
4.99152e-06
-6.9673e-09
4.99563e-06
-5.31415e-09
4.99913e-06
-3.70151e-09
5.00202e-06
-2.12713e-09
5.00434e-06
-5.86325e-10
5.00609e-06
9.33149e-10
5.0073e-06
2.43627e-09
5.00796e-06
3.92305e-09
5.00807e-06
5.39646e-09
5.00767e-06
6.85654e-09
5.00673e-06
8.30546e-09
5.00527e-06
9.74713e-09
5.00329e-06
1.11878e-08
5.00078e-06
1.26353e-08
4.99773e-06
1.4095e-08
4.99416e-06
1.5586e-08
4.99005e-06
1.71241e-08
4.98536e-06
1.87264e-08
4.9801e-06
2.04134e-08
4.9742e-06
2.22075e-08
4.96764e-06
2.41541e-08
4.96034e-06
2.63064e-08
4.95221e-06
2.87354e-08
4.94315e-06
3.1535e-08
4.93301e-06
3.4837e-08
4.92158e-06
3.8815e-08
4.90859e-06
4.37039e-08
4.89365e-06
4.98578e-08
4.87625e-06
5.77868e-08
4.85564e-06
6.82636e-08
4.83072e-06
8.25089e-08
4.79993e-06
1.0256e-07
4.76084e-06
1.3203e-07
4.71022e-06
1.77632e-07
4.64542e-06
2.53132e-07
3.76088e-07
4.57537e-06
-1.32206e-07
7.62199e-07
-2.69561e-07
7.83723e-07
-4.057e-07
7.63551e-07
-5.39665e-07
7.33702e-07
-6.70612e-07
6.99121e-07
-7.97877e-07
6.62426e-07
-9.21078e-07
6.25148e-07
-1.04003e-06
5.88174e-07
-1.15461e-06
5.52006e-07
-1.26476e-06
5.16893e-07
-1.37039e-06
4.82903e-07
-1.47136e-06
4.4998e-07
-1.56753e-06
4.1798e-07
-1.65869e-06
3.86719e-07
-1.74456e-06
3.5599e-07
-1.82484e-06
3.25575e-07
-1.89922e-06
2.95269e-07
-1.96732e-06
2.64884e-07
-2.02877e-06
2.34251e-07
-2.08319e-06
2.03232e-07
-2.13019e-06
1.71722e-07
-2.16937e-06
1.39652e-07
-2.20039e-06
1.06987e-07
-2.22291e-06
7.37409e-08
-2.23661e-06
3.99746e-08
-2.24122e-06
5.78356e-09
-2.23656e-06
-2.86419e-08
-2.22258e-06
-6.30184e-08
-2.19934e-06
-9.70446e-08
-2.16706e-06
-1.30412e-07
-2.12603e-06
-1.62822e-07
-2.07665e-06
-1.93994e-07
-2.01935e-06
-2.23682e-07
-1.95469e-06
-2.51685e-07
-1.88321e-06
-2.77844e-07
-1.8055e-06
-3.02047e-07
-1.72214e-06
-3.24228e-07
-1.6337e-06
-3.44366e-07
-1.54075e-06
-3.62478e-07
-1.44379e-06
-3.78607e-07
-1.3433e-06
-3.92832e-07
-1.23974e-06
-4.05259e-07
-1.13349e-06
-4.1601e-07
-1.02488e-06
-4.25222e-07
-9.14245e-07
-4.33042e-07
-8.0183e-07
-4.39624e-07
-6.87853e-07
-4.45128e-07
-5.72496e-07
-4.49727e-07
-4.55876e-07
-4.53593e-07
-3.38034e-07
-4.56946e-07
-2.18844e-07
-4.6016e-07
-9.84098e-08
-4.63254e-07
2.24477e-08
-4.65766e-07
1.42832e-07
-4.67504e-07
2.62357e-07
-4.68487e-07
3.80839e-07
-4.68715e-07
4.98125e-07
-4.68223e-07
6.14126e-07
-4.67058e-07
7.28741e-07
-4.65274e-07
8.41838e-07
-4.62908e-07
9.53382e-07
-4.59943e-07
1.06342e-06
-4.56367e-07
1.17203e-06
-4.52197e-07
1.2793e-06
-4.47474e-07
1.38531e-06
-4.42263e-07
1.49006e-06
-4.36643e-07
1.59352e-06
-4.30692e-07
1.69565e-06
-4.24473e-07
1.79641e-06
-4.18035e-07
1.89575e-06
-4.11417e-07
1.99361e-06
-4.04652e-07
2.08996e-06
-3.97766e-07
2.18475e-06
-3.90776e-07
2.27795e-06
-3.83696e-07
2.36953e-06
-3.7654e-07
2.45946e-06
-3.69323e-07
2.54773e-06
-3.62056e-07
2.6343e-06
-3.54745e-07
2.71917e-06
-3.47399e-07
2.80233e-06
-3.40024e-07
2.88375e-06
-3.32633e-07
2.96344e-06
-3.25232e-07
3.04138e-06
-3.17828e-07
3.11757e-06
-3.10427e-07
3.19201e-06
-3.03034e-07
3.2647e-06
-2.95657e-07
3.33564e-06
-2.88303e-07
3.40484e-06
-2.80979e-07
3.47231e-06
-2.73689e-07
3.53804e-06
-2.66439e-07
3.60205e-06
-2.59235e-07
3.66435e-06
-2.52085e-07
3.72495e-06
-2.44992e-07
3.78386e-06
-2.37961e-07
3.84111e-06
-2.30998e-07
3.8967e-06
-2.24108e-07
3.95065e-06
-2.17295e-07
4.003e-06
-2.10566e-07
4.05375e-06
-2.03924e-07
4.10293e-06
-1.97373e-07
4.15056e-06
-1.90917e-07
4.19666e-06
-1.84559e-07
4.24126e-06
-1.78303e-07
4.28438e-06
-1.72152e-07
4.32606e-06
-1.66111e-07
4.36632e-06
-1.6018e-07
4.40518e-06
-1.54362e-07
4.44267e-06
-1.48659e-07
4.47883e-06
-1.4307e-07
4.51367e-06
-1.37597e-07
4.54724e-06
-1.32243e-07
4.57956e-06
-1.2701e-07
4.61066e-06
-1.21897e-07
4.64056e-06
-1.16902e-07
4.6693e-06
-1.12023e-07
4.6969e-06
-1.07259e-07
4.72339e-06
-1.02614e-07
4.74881e-06
-9.80852e-08
4.77317e-06
-9.36716e-08