/*--------------------------------*- C++ -*----------------------------------*\
| =========                 |                                                 |
| \\      /  F ield         | OpenFOAM: The Open Source CFD Toolbox           |
|  \\    /   O peration     | Version:  2.2.x                                 |
|   \\  /    A nd           | Web:      www.OpenFOAM.org                      |
|    \\/     M anipulation  |                                                 |
\*---------------------------------------------------------------------------*/
FoamFile
{
    version     2.0;
    format      ascii;
    class       volVectorField;
    location    "50";
    object      U;
}
// * * * * * * * * * * * * * * * * * * * * * * * * * * * * * * * * * * * * * //

dimensions      [0 1 -1 0 0 0 0];

internalField   nonuniform List<vector> 
12225
(
(9.83942 -1.23835 0)
(9.73719 -0.731333 0)
(9.53318 -0.467042 0)
(9.31609 -0.306945 0)
(9.11293 -0.205298 0)
(8.92383 -0.138714 0)
(8.74693 -0.093819 0)
(8.58134 -0.0628476 0)
(8.42613 -0.0410893 0)
(8.28025 -0.0255612 0)
(8.14266 -0.0143103 0)
(8.01251 -0.00601881 0)
(7.88895 0.000257388 0)
(7.77109 0.00524519 0)
(7.6573 0.00956756 0)
(7.54448 0.0138963 0)
(7.42264 0.01992 0)
(7.3023 -0.000958011 0)
(10.0332 0.447643 0)
(10.0211 0.427497 0)
(9.98451 0.341117 0)
(9.93576 0.272215 0)
(9.88497 0.219456 0)
(9.83127 0.179361 0)
(9.77383 0.149395 0)
(9.7132 0.1271 0)
(9.65012 0.110463 0)
(9.58517 0.0979838 0)
(9.51874 0.0885727 0)
(9.4513 0.0814182 0)
(9.38324 0.0759283 0)
(9.31482 0.0716775 0)
(9.2458 0.0684756 0)
(9.17526 0.0668325 0)
(9.10293 0.0697299 0)
(9.02608 0.0951905 0)
(9.99263 0.0272464 0)
(10.0008 -0.00772004 0)
(10.0142 -0.0259061 0)
(10.0179 -0.0200585 0)
(10.0169 -0.00786308 0)
(10.0121 0.00442549 0)
(10.003 0.015642 0)
(9.9902 0.0254948 0)
(9.97418 0.0339653 0)
(9.95531 0.041175 0)
(9.9338 0.0472942 0)
(9.90988 0.0524428 0)
(9.88381 0.056706 0)
(9.85556 0.0602275 0)
(9.82462 0.0636213 0)
(9.78875 0.0690112 0)
(9.74375 0.0812804 0)
(9.67795 0.10605 0)
(9.99969 0.0203343 0)
(10.0108 0.0448101 0)
(10.0271 0.0579911 0)
(10.0344 0.068566 0)
(10.0377 0.0750603 0)
(10.0388 0.0781101 0)
(10.0375 0.0794369 0)
(10.034 0.0800997 0)
(10.0284 0.0806081 0)
(10.0209 0.0812049 0)
(10.0114 0.0819809 0)
(9.99999 0.0829168 0)
(9.98652 0.0839876 0)
(9.97045 0.0854648 0)
(9.95011 0.088614 0)
(9.92152 0.0967947 0)
(9.88003 0.115417 0)
(9.82017 0.148551 0)
(10.002 0.019578 0)
(10.0128 0.0427701 0)
(10.0265 0.0499336 0)
(10.0337 0.05361 0)
(10.0379 0.0565082 0)
(10.0407 0.0587763 0)
(10.0417 0.0609838 0)
(10.0408 0.0634674 0)
(10.0381 0.0662903 0)
(10.0337 0.0694249 0)
(10.0274 0.0728017 0)
(10.0192 0.0763746 0)
(10.0088 0.0802948 0)
(9.99538 0.085462 0)
(9.97663 0.0943035 0)
(9.94908 0.110953 0)
(9.91027 0.139477 0)
(9.85891 0.181138 0)
(10.0022 0.0200954 0)
(10.0116 0.0395026 0)
(10.0233 0.0471631 0)
(10.0307 0.0520946 0)
(10.0354 0.0566658 0)
(10.0387 0.0606279 0)
(10.0404 0.0642386 0)
(10.0404 0.0678276 0)
(10.0386 0.0715576 0)
(10.0352 0.0755076 0)
(10.0299 0.0797068 0)
(10.0226 0.0842272 0)
(10.0129 0.0894547 0)
(9.99991 0.0967666 0)
(9.9814 0.109287 0)
(9.955 0.131263 0)
(9.91986 0.165668 0)
(9.87669 0.212042 0)
(10.0018 0.0180948 0)
(10.0096 0.0348334 0)
(10.0196 0.0435754 0)
(10.0269 0.0495182 0)
(10.0318 0.0547133 0)
(10.0353 0.0592257 0)
(10.0373 0.0633684 0)
(10.0377 0.067523 0)
(10.0364 0.0719217 0)
(10.0335 0.0766936 0)
(10.0287 0.0819345 0)
(10.0219 0.0878139 0)
(10.0126 0.0949781 0)
(9.99979 0.105263 0)
(9.98179 0.122191 0)
(9.95722 0.149627 0)
(9.92635 0.189236 0)
(9.89093 0.238971 0)
(10.0016 0.0164202 0)
(10.008 0.0317355 0)
(10.0167 0.041077 0)
(10.0235 0.0476138 0)
(10.0284 0.0532258 0)
(10.032 0.0582268 0)
(10.0342 0.062945 0)
(10.0348 0.0677475 0)
(10.0339 0.0728861 0)
(10.0314 0.0785209 0)
(10.027 0.0847985 0)
(10.0206 0.0919911 0)
(10.0115 0.100919 0)
(9.99894 0.113698 0)
(9.9818 0.133999 0)
(9.95952 0.165284 0)
(9.93308 0.208137 0)
(9.90452 0.259285 0)
(10.0014 0.0150881 0)
(10.0069 0.0292843 0)
(10.0144 0.0387957 0)
(10.0208 0.0457278 0)
(10.0255 0.051701 0)
(10.0291 0.0571321 0)
(10.0314 0.0623559 0)
(10.0323 0.0677294 0)
(10.0318 0.0735236 0)
(10.0297 0.079947 0)
(10.0259 0.0872105 0)
(10.0199 0.095696 0)
(10.0115 0.106337 0)
(9.99987 0.121309 0)
(9.98451 0.144138 0)
(9.96549 0.177861 0)
(9.94413 0.222368 0)
(9.9224 0.273619 0)
(10.0012 0.0138105 0)
(10.0058 0.0268942 0)
(10.0122 0.0363907 0)
(10.018 0.0436502 0)
(10.0226 0.049982 0)
(10.0262 0.0558507 0)
(10.0286 0.0615946 0)
(10.0299 0.0675669 0)
(10.0298 0.0740581 0)
(10.0283 0.0813259 0)
(10.0253 0.0896635 0)
(10.0203 0.0995562 0)
(10.0132 0.112024 0)
(10.0035 0.129176 0)
(9.99115 0.154203 0)
(9.97671 0.189634 0)
(9.96161 0.234802 0)
(9.94758 0.285106 0)
(10.001 0.0125609 0)
(10.0048 0.024558 0)
(10.0103 0.0339011 0)
(10.0155 0.0413933 0)
(10.0199 0.048038 0)
(10.0235 0.0543169 0)
(10.0261 0.0605681 0)
(10.0278 0.0671386 0)
(10.0283 0.074336 0)
(10.0276 0.0824591 0)
(10.0256 0.0918696 0)
(10.0221 0.103121 0)
(10.017 0.117242 0)
(10.0102 0.136156 0)
(10.002 0.162645 0)
(9.99321 0.198769 0)
(9.98513 0.243489 0)
(9.97921 0.291802 0)
(10.0009 0.0113446 0)
(10.004 0.022298 0)
(10.0086 0.0313487 0)
(10.0133 0.0389474 0)
(10.0175 0.0458311 0)
(10.0211 0.0524597 0)
(10.0241 0.0591675 0)
(10.0262 0.0662848 0)
(10.0275 0.0741308 0)
(10.0279 0.0830312 0)
(10.0273 0.0933826 0)
(10.0257 0.105745 0)
(10.0232 0.12106 0)
(10.0201 0.140967 0)
(10.0168 0.167802 0)
(10.0143 0.203287 0)
(10.0136 0.246248 0)
(10.0158 0.291484 0)
(10.0007 0.0101631 0)
(10.0033 0.0201023 0)
(10.0073 0.0287226 0)
(10.0116 0.036275 0)
(10.0157 0.0432865 0)
(10.0194 0.0501584 0)
(10.0227 0.0572115 0)
(10.0255 0.0647525 0)
(10.0277 0.0730961 0)
(10.0294 0.0825679 0)
(10.0306 0.0935491 0)
(10.0314 0.106547 0)
(10.032 0.122335 0)
(10.0328 0.142194 0)
(10.0347 0.167993 0)
(10.0384 0.201249 0)
(10.045 0.240929 0)
(10.0551 0.281885 0)
(10.0006 0.00900217 0)
(10.0028 0.0179249 0)
(10.0063 0.0259741 0)
(10.0103 0.0333021 0)
(10.0144 0.0402747 0)
(10.0184 0.0472232 0)
(10.0222 0.0544331 0)
(10.0258 0.0621826 0)
(10.0292 0.0707497 0)
(10.0325 0.0804262 0)
(10.0357 0.0915354 0)
(10.039 0.104479 0)
(10.0428 0.119811 0)
(10.0477 0.138409 0)
(10.0543 0.161642 0)
(10.0637 0.190876 0)
(10.0766 0.225472 0)
(10.0938 0.260664 0)
(10.0006 0.00782434 0)
(10.0025 0.0156835 0)
(10.0057 0.0230003 0)
(10.0096 0.0298884 0)
(10.0138 0.0365933 0)
(10.0182 0.0433753 0)
(10.0226 0.0504676 0)
(10.0272 0.0580952 0)
(10.0319 0.0664778 0)
(10.0368 0.0758381 0)
(10.0422 0.0864112 0)
(10.0481 0.0984567 0)
(10.0551 0.112297 0)
(10.0635 0.128421 0)
(10.074 0.147669 0)
(10.0876 0.171116 0)
(10.1053 0.19856 0)
(10.1277 0.226 0)
(10.0005 0.00656959 0)
(10.0024 0.0132546 0)
(10.0055 0.0196382 0)
(10.0094 0.0258191 0)
(10.0139 0.0319644 0)
(10.0187 0.0382555 0)
(10.0239 0.044863 0)
(10.0295 0.0519369 0)
(10.0356 0.05962 0)
(10.0421 0.0680438 0)
(10.0494 0.0773295 0)
(10.0577 0.0875875 0)
(10.0673 0.0989327 0)
(10.0785 0.111538 0)
(10.0917 0.125757 0)
(10.1078 0.142157 0)
(10.1278 0.160605 0)
(10.1528 0.177955 0)
(10.0005 0.00514768 0)
(10.0024 0.0104533 0)
(10.0056 0.0156383 0)
(10.0097 0.0207899 0)
(10.0146 0.0260181 0)
(10.02 0.0314277 0)
(10.026 0.0371096 0)
(10.0326 0.0431358 0)
(10.0398 0.0495584 0)
(10.0477 0.0564106 0)
(10.0565 0.063697 0)
(10.0664 0.0713963 0)
(10.0776 0.0794617 0)
(10.0903 0.0878428 0)
(10.1048 0.0965247 0)
(10.1215 0.105497 0)
(10.1413 0.114158 0)
(10.1658 0.119653 0)
(10.0005 0.00355821 0)
(10.0025 0.00728459 0)
(10.0059 0.011034 0)
(10.0104 0.014889 0)
(10.0157 0.0189061 0)
(10.0217 0.0231241 0)
(10.0283 0.0275583 0)
(10.0356 0.0322082 0)
(10.0435 0.0370477 0)
(10.0522 0.0420238 0)
(10.0617 0.0470552 0)
(10.0721 0.0520272 0)
(10.0836 0.0567903 0)
(10.0963 0.0611565 0)
(10.1103 0.0648751 0)
(10.1257 0.067478 0)
(10.1433 0.0676505 0)
(10.1645 0.0620636 0)
(10.0006 0.00193618 0)
(10.0027 0.00403756 0)
(10.0064 0.00629363 0)
(10.0113 0.00878968 0)
(10.017 0.0115442 0)
(10.0235 0.0145352 0)
(10.0306 0.0177259 0)
(10.0383 0.0210578 0)
(10.0465 0.0244559 0)
(10.0554 0.027815 0)
(10.0649 0.0310067 0)
(10.075 0.0338683 0)
(10.0859 0.0362009 0)
(10.0974 0.0377489 0)
(10.1097 0.0381365 0)
(10.1228 0.0366119 0)
(10.137 0.0312951 0)
(10.1534 0.0182201 0)
(10.0006 0.00036287 0)
(10.003 0.000876824 0)
(10.007 0.00169068 0)
(10.0123 0.00291221 0)
(10.0185 0.00451939 0)
(10.0253 0.00643154 0)
(10.0328 0.00856688 0)
(10.0407 0.0108349 0)
(10.0491 0.0131299 0)
(10.0579 0.0153282 0)
(10.0671 0.0172835 0)
(10.0767 0.0188231 0)
(10.0866 0.0197409 0)
(10.0968 0.0197716 0)
(10.1071 0.018505 0)
(10.1175 0.0150813 0)
(10.1282 0.00737665 0)
(10.1395 -0.00890554 0)
(10.0007 -0.00116337 0)
(10.0033 -0.00222603 0)
(10.0077 -0.00280861 0)
(10.0135 -0.00274666 0)
(10.0201 -0.00214478 0)
(10.0274 -0.00114981 0)
(10.0351 0.000118658 0)
(10.0432 0.00155599 0)
(10.0517 0.0030385 0)
(10.0604 0.00443934 0)
(10.0693 0.0056179 0)
(10.0784 0.00642091 0)
(10.0874 0.00667046 0)
(10.0963 0.00613667 0)
(10.1049 0.00445295 0)
(10.1131 0.000826696 0)
(10.1205 -0.00675924 0)
(10.1272 -0.0225724 0)
(10.0007 -0.00262127 0)
(10.0035 -0.00530013 0)
(10.0085 -0.00723668 0)
(10.0149 -0.00818916 0)
(10.022 -0.00842403 0)
(10.0296 -0.00817946 0)
(10.0377 -0.00758835 0)
(10.046 -0.0067727 0)
(10.0545 -0.00585944 0)
(10.0632 -0.00497162 0)
(10.0719 -0.00422899 0)
(10.0805 -0.00375081 0)
(10.0889 -0.00366794 0)
(10.0969 -0.0041437 0)
(10.1043 -0.00543964 0)
(10.1109 -0.00815779 0)
(10.1161 -0.0139571 0)
(10.1194 -0.0266877 0)
(10.0007 -0.00396478 0)
(10.0037 -0.00840094 0)
(10.0094 -0.0116675 0)
(10.0165 -0.0134994 0)
(10.0241 -0.0144544 0)
(10.0321 -0.0148509 0)
(10.0404 -0.0148195 0)
(10.0489 -0.0145049 0)
(10.0575 -0.0140396 0)
(10.0661 -0.0135342 0)
(10.0747 -0.0130798 0)
(10.083 -0.0127573 0)
(10.0911 -0.0126418 0)
(10.0986 -0.0128117 0)
(10.1054 -0.0133922 0)
(10.1111 -0.0147307 0)
(10.1152 -0.0179592 0)
(10.1169 -0.0261511 0)
(10.0005 -0.00511879 0)
(10.0037 -0.0115701 0)
(10.0103 -0.0159255 0)
(10.0182 -0.0183144 0)
(10.0262 -0.0197982 0)
(10.0345 -0.0206445 0)
(10.043 -0.0209513 0)
(10.0516 -0.020896 0)
(10.0602 -0.0206377 0)
(10.0688 -0.0202851 0)
(10.0773 -0.019912 0)
(10.0855 -0.0195687 0)
(10.0934 -0.019282 0)
(10.1007 -0.0190558 0)
(10.1073 -0.0188958 0)
(10.1129 -0.018918 0)
(10.117 -0.0197287 0)
(10.1186 -0.0234155 0)
(10 -0.00603083 0)
(10.0034 -0.0156918 0)
(10.0112 -0.02101 0)
(10.0197 -0.0237002 0)
(10.028 -0.0257563 0)
(10.0365 -0.0272535 0)
(10.0452 -0.0281615 0)
(10.0538 -0.0286341 0)
(10.0624 -0.0288148 0)
(10.0709 -0.0287942 0)
(10.0793 -0.0286318 0)
(10.0874 -0.0283613 0)
(10.0952 -0.0279828 0)
(10.1025 -0.027453 0)
(10.1092 -0.0266873 0)
(10.115 -0.0256054 0)
(10.1197 -0.0243409 0)
(10.1225 -0.0239507 0)
(9.99864 -0.00411151 0)
(10.0018 -0.0184161 0)
(10.0113 -0.0242631 0)
(10.0203 -0.0260043 0)
(10.0285 -0.0269879 0)
(10.037 -0.027538 0)
(10.0456 -0.0278019 0)
(10.0542 -0.0279701 0)
(10.0628 -0.0281143 0)
(10.0712 -0.0282365 0)
(10.0794 -0.0283196 0)
(10.0874 -0.0283326 0)
(10.0951 -0.0282162 0)
(10.1025 -0.0278686 0)
(10.1093 -0.0271337 0)
(10.1156 -0.025819 0)
(10.1212 -0.0237986 0)
(10.1255 -0.0214087 0)
(9.99501 -0.00254293 0)
(9.99686 -0.0243297 0)
(10.0097 -0.037404 0)
(10.02 -0.0459608 0)
(10.0284 -0.051158 0)
(10.0366 -0.0534299 0)
(10.0446 -0.0538816 0)
(10.0525 -0.0533728 0)
(10.0602 -0.052357 0)
(10.0677 -0.0510728 0)
(10.0751 -0.0496545 0)
(10.0823 -0.0481617 0)
(10.0893 -0.0465851 0)
(10.096 -0.0448435 0)
(10.1025 -0.0427757 0)
(10.1088 -0.0401281 0)
(10.1147 -0.0365838 0)
(10.1205 -0.0319521 0)
(9.98539 0.00619271 0)
(9.98285 0.0258079 0)
(9.99648 0.037958 0)
(10.0079 0.0340876 0)
(10.0175 0.0247555 0)
(10.0261 0.0152345 0)
(10.0335 0.00657192 0)
(10.0399 -0.0010457 0)
(10.0454 -0.00755361 0)
(10.0503 -0.0129892 0)
(10.0547 -0.0174526 0)
(10.0586 -0.0210485 0)
(10.0622 -0.0238476 0)
(10.0656 -0.0258621 0)
(10.0687 -0.0270252 0)
(10.072 -0.0271527 0)
(10.0753 -0.0259125 0)
(10.0789 -0.022859 0)
(10.0138 -0.317084 0)
(10.0111 -0.325795 0)
(10.0013 -0.270728 0)
(9.98716 -0.223833 0)
(9.97508 -0.186847 0)
(9.96395 -0.157256 0)
(9.95208 -0.133921 0)
(9.93916 -0.115653 0)
(9.92534 -0.10128 0)
(9.91079 -0.0898651 0)
(9.89567 -0.0807057 0)
(9.88017 -0.0732675 0)
(9.86449 -0.0671216 0)
(9.84889 -0.0619094 0)
(9.83366 -0.0572957 0)
(9.81922 -0.052922 0)
(9.80617 -0.0483217 0)
(9.79496 -0.0425978 0)
(9.95432 0.913132 0)
(9.95505 0.561136 0)
(9.86865 0.375643 0)
(9.75721 0.258851 0)
(9.64554 0.180917 0)
(9.53727 0.127466 0)
(9.43262 0.089802 0)
(9.33232 0.0626917 0)
(9.23698 0.0428955 0)
(9.14679 0.0282941 0)
(9.06176 0.0174451 0)
(8.98175 0.00934269 0)
(8.90667 0.00328273 0)
(8.83638 -0.00123735 0)
(8.77084 -0.0045688 0)
(8.71011 -0.0069504 0)
(8.65461 -0.0085014 0)
(8.6034 -0.00902804 0)
(-0.180173 0.349036 0)
(-0.364657 0.352116 0)
(-0.592286 0.315192 0)
(-0.813765 0.278907 0)
(-1.01787 0.248787 0)
(-1.20722 0.223475 0)
(-1.38291 0.2016 2.49738e-20)
(-1.54573 0.182287 -2.20223e-20)
(-1.69637 0.164993 0)
(-1.83552 0.149367 -1.77285e-20)
(-1.96379 0.13515 0)
(-2.08176 0.12214 0)
(-2.18999 0.110166 0)
(-2.28899 0.0990789 1.27725e-20)
(-2.37921 0.0887508 0)
(-2.46105 0.0790709 0)
(-2.53476 0.0699386 -1.08653e-20)
(-2.60051 0.0612518 0)
(-2.65838 0.0529056 0)
(-2.70847 0.044803 0)
(-2.75095 0.0368735 9.92073e-21)
(-2.78605 0.0290856 0)
(-2.81389 0.0214404 1.00372e-20)
(-2.83446 0.0139476 0)
(-2.84752 0.00660403 0)
(-2.85271 -0.000598198 1.09156e-20)
(-2.85026 -0.00767602 0)
(-2.84038 -0.0146371 -1.19759e-20)
(-2.82313 -0.0214678 0)
(-2.79857 -0.0281239 1.34753e-20)
(-2.76687 -0.0345578 0)
(-2.72821 -0.0407252 0)
(-2.68284 -0.0465874 0)
(-2.63106 -0.0521134 0)
(-2.57325 -0.0572832 0)
(-2.50981 -0.0620881 -2.08991e-20)
(-2.44119 -0.0665272 0)
(-2.36787 -0.0706045 4.89562e-20)
(-2.29031 -0.0743261 0)
(-2.20898 -0.0776933 -5.74113e-20)
(-2.12428 -0.0806966 0)
(-2.03664 -0.0833133 0)
(-1.94645 -0.0855116 7.29784e-20)
(-1.85407 -0.0872519 0)
(-1.75984 -0.0884997 8.57398e-20)
(-1.66409 -0.0892472 -9.30035e-20)
(-1.56712 -0.0895246 0)
(-1.46923 -0.0894117 -1.09703e-19)
(-1.37071 -0.089046 -1.19362e-19)
(-1.2718 -0.0886161 0)
(-1.17261 -0.0883474 0)
(-1.07313 -0.088488 0)
(-0.973319 -0.0892836 0)
(-0.873241 -0.0909412 0)
(-0.772958 -0.0935803 2.09472e-19)
(-0.672261 -0.0971383 0)
(-0.570974 -0.101443 -2.63368e-19)
(-0.47004 -0.106232 0)
(-0.370868 -0.110953 0)
(-0.2746 -0.114831 4.09791e-19)
(-0.177295 -0.116929 0)
(-0.0685806 -0.115913 -5.28908e-19)
(0.0390142 -0.112119 0)
(0.145823 -0.107538 0)
(0.251573 -0.102864 0)
(0.355892 -0.0983372 3.12143e-19)
(0.458713 -0.0940527 0)
(0.559993 -0.0900373 0)
(0.659705 -0.0862849 2.4229e-19)
(0.75782 -0.0827723 0)
(0.854321 -0.0794737 2.12899e-19)
(0.949196 -0.0763668 0)
(1.04243 -0.073431 0)
(1.13402 -0.0706481 0)
(1.22394 -0.0680006 -1.74028e-19)
(1.31218 -0.065472 0)
(1.39875 -0.063049 0)
(1.48365 -0.0607223 -1.54653e-19)
(1.56687 -0.0584829 -1.49372e-19)
(1.64841 -0.0563221 0)
(1.72825 -0.0542331 -1.40132e-19)
(1.80639 -0.0522111 0)
(1.88283 -0.0502525 -2.64638e-19)
(1.95758 -0.0483542 0)
(2.03061 -0.0465142 -2.51268e-19)
(2.10195 -0.0447296 0)
(2.17158 -0.0429971 2.39713e-19)
(2.23952 -0.0413139 0)
(2.30578 -0.039678 0)
(2.37036 -0.0380875 0)
(2.43328 -0.0365402 -2.20814e-19)
(2.49453 -0.0350344 0)
(2.55414 -0.0335685 2.13026e-19)
(2.61211 -0.0321421 0)
(2.66845 -0.0307545 -2.06127e-19)
(2.72317 -0.0294056 -2.02972e-19)
(2.7763 -0.0280946 -1.99994e-19)
(2.82785 -0.0268202 0)
(2.87783 -0.0255811 0)
(2.92628 -0.0243766 0)
(2.97321 -0.0232071 0)
(3.01863 -0.0220733 0)
(3.06257 -0.0209746 0)
(3.10504 -0.0199093 0)
(3.14606 -0.0188757 0)
(3.18565 -0.0178737 1.79573e-19)
(3.22383 -0.0169054 1.77875e-19)
(3.26062 -0.0159734 0)
(3.29605 -0.0150784 0)
(3.33013 -0.0142186 0)
(3.36291 -0.0133913 1.71966e-19)
(3.39441 -0.012595 0)
(3.42468 -0.0118302 0)
(3.45374 -0.0110976 0)
(3.48162 -0.0103968 0)
(3.50836 -0.00972544 -1.66242e-19)
(3.53398 -0.00908149 0)
(3.55852 -0.00846412 0)
(3.58201 -0.00787368 1.63527e-19)
(3.60447 -0.00731037 -1.62726e-19)
(3.62594 -0.00677339 0)
(3.64644 -0.00626148 -1.61265e-19)
(3.66599 -0.00577414 0)
(3.68463 -0.00531189 1.59982e-19)
(3.70237 -0.00487545 0)
(3.71924 -0.00446449 0)
(3.73528 -0.00407761 0)
(3.7505 -0.00371342 0)
(3.76493 -0.00337143 0)
(3.7786 -0.00305171 -3.14125e-19)
(3.79154 -0.00275385 -3.1339e-19)
(3.80377 -0.00247644 0)
(3.81531 -0.00221752 0)
(3.82619 -0.00197551 0)
(3.83644 -0.00174971 3.11018e-19)
(3.84609 -0.00154037 0)
(3.85517 -0.001348 0)
(3.86368 -0.00117287 0)
(3.87167 -0.00101534 3.0943e-19)
(3.87913 -0.000876794 -3.09136e-19)
(3.88612 -0.000758768 0)
(3.89266 -0.000661438 0)
(3.89882 -0.000581345 -3.08434e-19)
(3.90462 -0.000512887 -3.08244e-19)
(3.91006 -0.000451882 0)
(3.91515 -0.000393956 0)
(3.91988 -0.000335983 3.07864e-19)
(3.92426 -0.000278004 -3.07798e-19)
(3.92829 -0.000221112 0)
(3.93199 -0.000165775 0)
(3.93534 -0.000112053 -3.07785e-19)
(3.93835 -5.96538e-05 0)
(3.94101 -7.84327e-06 0)
(3.94334 4.49948e-05 -3.08036e-19)
(3.94533 9.93876e-05 0)
(3.947 0.000153721 -3.08349e-19)
(3.94835 0.000208481 0)
(3.94934 0.000264473 0)
(3.94998 0.000321636 0)
(3.95026 0.000381412 3.0935e-19)
(3.95016 0.000446889 0)
(3.94968 0.000521773 0)
(3.94878 0.000606321 0)
(3.94742 0.000703814 0)
(3.94555 0.000816326 0)
(3.94311 0.000948538 0)
(3.93998 0.00110734 3.12728e-19)
(3.93605 0.00129855 3.13492e-19)
(3.93116 0.00153391 0)
(3.92511 0.00183096 0)
(3.91761 0.00221076 0)
(3.90826 0.00270432 -3.18046e-19)
(3.89651 0.00335777 0)
(3.8816 0.00424319 6.43924e-19)
(3.86234 0.00547643 -6.49376e-19)
(3.83696 0.007255 -6.56409e-19)
(3.80263 0.00996501 6.65748e-19)
(3.75386 0.0145186 -6.78619e-19)
(3.684 0.0235141 6.97483e-19)
(3.51416 0.0519221 0)
(-0.140431 0.683444 0)
(-0.2836 0.702097 0)
(-0.462118 0.67035 -7.49638e-20)
(-0.641777 0.628007 0)
(-0.813985 0.584071 5.17403e-20)
(-0.977463 0.541222 4.4649e-20)
(-1.13166 0.500102 1.90562e-20)
(-1.2763 0.460925 1.77221e-20)
(-1.41139 0.423785 0)
(-1.53713 0.388724 1.42596e-20)
(-1.65384 0.355714 0)
(-1.76187 0.324669 0)
(-1.86156 0.295449 -2.14579e-20)
(-1.95323 0.267885 -1.0141e-20)
(-2.03719 0.241792 1.86584e-20)
(-2.11367 0.216985 1.75945e-20)
(-2.18283 0.193287 8.5085e-21)
(-2.24476 0.170518 0)
(-2.29948 0.148489 0)
(-2.34697 0.127012 0)
(-2.38723 0.105925 7.28385e-21)
(-2.42031 0.0851278 0)
(-2.44629 0.0645896 -2.2506e-20)
(-2.46514 0.0443358 0)
(-2.4767 0.0244094 0)
(-2.48067 0.00483818 -8.15825e-21)
(-2.47713 -0.0143611 0)
(-2.46615 -0.0331451 8.81827e-21)
(-2.44776 -0.0514278 1.80303e-20)
(-2.42205 -0.0690935 -9.76687e-21)
(-2.38916 -0.0860175 0)
(-2.34929 -0.102079 0)
(-2.3027 -0.117169 0)
(-2.24971 -0.1312 2.4503e-20)
(-2.19071 -0.144113 2.62363e-20)
(-2.1261 -0.155876 1.43538e-20)
(-2.05633 -0.166484 0)
(-1.98186 -0.175958 -3.29406e-20)
(-1.90313 -0.184333 0)
(-1.82055 -0.191646 3.77808e-20)
(-1.73451 -0.19793 0)
(-1.64534 -0.203207 0)
(-1.55339 -0.207481 -4.62693e-20)
(-1.45895 -0.210749 0)
(-1.36235 -0.213009 -1.57109e-19)
(-1.26391 -0.214284 5.64561e-20)
(-1.16399 -0.214642 0)
(-1.06293 -0.214212 6.43768e-20)
(-0.961033 -0.213193 6.87351e-20)
(-0.858566 -0.211839 0)
(-0.755675 -0.210418 0)
(-0.652354 -0.209197 0)
(-0.548417 -0.20844 0)
(-0.443687 -0.208344 0)
(-0.33804 -0.208956 -1.03158e-19)
(-0.230862 -0.210119 -2.19941e-19)
(-0.119911 -0.211741 1.16649e-19)
(-0.00684226 -0.213825 0)
(0.104921 -0.216221 -2.24474e-19)
(0.214747 -0.218578 1.087e-19)
(0.322714 -0.219366 0)
(0.429387 -0.217808 1.06242e-19)
(0.534543 -0.214668 0)
(0.638237 -0.210534 0)
(0.740784 -0.205867 2.00978e-19)
(0.842304 -0.200951 -9.96975e-20)
(0.942781 -0.195951 1.95249e-19)
(1.04215 -0.190957 -1.92553e-19)
(1.14034 -0.186013 -9.55552e-20)
(1.23728 -0.181143 0)
(1.33292 -0.176357 -9.30348e-20)
(1.42721 -0.171656 0)
(1.52009 -0.167041 0)
(1.61154 -0.162508 0)
(1.70153 -0.158053 -8.76409e-20)
(1.79003 -0.153671 0)
(1.87703 -0.14936 -1.72097e-19)
(1.96249 -0.145116 2.55628e-19)
(2.04641 -0.140941 8.45014e-20)
(2.12879 -0.136834 0)
(2.20963 -0.132795 8.26984e-20)
(2.28891 -0.128824 0)
(2.36662 -0.12492 1.6202e-19)
(2.44277 -0.121086 0)
(2.51733 -0.11732 1.5886e-19)
(2.59032 -0.113623 -3.13782e-19)
(2.66174 -0.109994 -1.55904e-19)
(2.73159 -0.106431 0)
(2.79989 -0.102935 0)
(2.86663 -0.0995078 0)
(2.93183 -0.0961478 1.5056e-19)
(2.9955 -0.0928561 0)
(3.05766 -0.089633 -1.4815e-19)
(3.11831 -0.0864792 0)
(3.17747 -0.0833948 4.37135e-19)
(3.23516 -0.0803799 1.44837e-19)
(3.29137 -0.0774335 1.43809e-19)
(3.34615 -0.0745546 0)
(3.39951 -0.0717428 0)
(3.45146 -0.068999 0)
(3.50202 -0.0663252 0)
(3.5512 -0.0637221 0)
(3.59904 -0.0611891 2.76371e-19)
(3.64554 -0.0587244 2.74806e-19)
(3.69074 -0.0563281 0)
(3.73465 -0.0540025 -1.36084e-19)
(3.77729 -0.0517515 -1.35381e-19)
(3.81868 -0.0495764 0)
(3.85884 -0.0474751 -2.67854e-19)
(3.8978 -0.0454424 0)
(3.93558 -0.0434743 1.32608e-19)
(3.97221 -0.0415701 0)
(4.00772 -0.039731 0)
(4.04214 -0.0379573 -2.62209e-19)
(4.07549 -0.0362465 0)
(4.1078 -0.0345943 1.30223e-19)
(4.1391 -0.0329976 0)
(4.1694 -0.0314554 0)
(4.19874 -0.0299681 1.28746e-19)
(4.22713 -0.0285349 1.28497e-19)
(4.25459 -0.0271538 0)
(4.28116 -0.0258229 -1.27613e-19)
(4.30683 -0.0245419 0)
(4.33165 -0.0233119 1.26944e-19)
(4.35561 -0.0221331 2.53377e-19)
(4.37874 -0.0210041 0)
(4.40106 -0.0199222 0)
(4.42258 -0.0188853 0)
(4.44333 -0.0178929 0)
(4.46332 -0.0169444 2.5079e-19)
(4.48257 -0.0160383 7.5086e-19)
(4.50109 -0.0151714 0)
(4.51891 -0.0143402 0)
(4.53605 -0.013542 0)
(4.55252 -0.0127758 -2.48788e-19)
(4.56834 -0.0120413 0)
(4.58353 -0.0113382 0)
(4.59809 -0.0106653 4.95631e-19)
(4.61204 -0.0100218 2.47505e-19)
(4.62538 -0.00940945 2.47364e-19)
(4.63813 -0.00883148 0)
(4.65029 -0.00828824 0)
(4.66183 -0.00777593 2.46761e-19)
(4.67275 -0.00729171 -2.46524e-19)
(4.68308 -0.00683476 0)
(4.69284 -0.00640084 0)
(4.7021 -0.00598313 -2.46207e-19)
(4.71087 -0.0055771 7.38206e-19)
(4.71915 -0.00518163 0)
(4.72694 -0.0047968 0)
(4.73425 -0.00442344 2.45861e-19)
(4.74109 -0.0040609 0)
(4.74745 -0.00370651 4.91582e-19)
(4.75336 -0.00335784 -2.45776e-19)
(4.75881 -0.00301446 0)
(4.7638 -0.00267736 2.45892e-19)
(4.76834 -0.002345 4.91882e-19)
(4.77241 -0.00201606 0)
(4.77601 -0.00168869 0)
(4.77914 -0.00135716 -2.46297e-19)
(4.78179 -0.00101534 0)
(4.78393 -0.00065612 4.93249e-19)
(4.78554 -0.00027531 0)
(4.78659 0.000134162 0)
(4.787 0.000580614 0)
(4.78673 0.00107744 0)
(4.78567 0.00164214 -2.481e-19)
(4.78371 0.00229514 -2.48544e-19)
(4.78067 0.00307092 0)
(4.77637 0.00401468 0)
(4.77049 0.00518567 0)
(4.76265 0.00667316 2.51291e-19)
(4.75228 0.00860536 0)
(4.73858 0.011181 -5.07391e-19)
(4.72039 0.0147177 5.10728e-19)
(4.69591 0.0197581 5.14986e-19)
(4.66237 0.0273363 5.19621e-19)
(4.61478 0.0396524 5.27773e-19)
(4.54857 0.06273 5.34512e-19)
(4.41924 0.113704 0)
(-0.105483 1.03539 0)
(-0.22236 1.06133 0)
(-0.367635 1.02293 6.07471e-20)
(-0.514321 0.968538 4.65614e-20)
(-0.657059 0.908371 -4.175e-20)
(-0.794074 0.846967 -3.59966e-20)
(-0.92493 0.786353 -1.57241e-21)
(-1.04933 0.727587 0)
(-1.16716 0.671255 0)
(-1.27847 0.617659 0)
(-1.38338 0.566884 0)
(-1.48201 0.518861 0)
(-1.57448 0.473407 4.99838e-20)
(-1.66086 0.430274 0)
(-1.7412 0.389179 -1.486e-20)
(-1.81548 0.349829 -1.40158e-20)
(-1.88364 0.311945 0)
(-1.94558 0.275258 0)
(-2.00115 0.239523 0)
(-2.05016 0.204515 0)
(-2.09243 0.170045 -1.19198e-20)
(-2.12783 0.135974 0)
(-2.15621 0.102229 1.1934e-20)
(-2.17744 0.0688057 0)
(-2.19134 0.0357474 0)
(-2.1976 0.00311796 0)
(-2.19605 -0.0290028 2.5289e-20)
(-2.18673 -0.0604815 0)
(-2.16966 -0.0911281 -1.44022e-20)
(-2.14492 -0.120727 2.92424e-20)
(-2.11267 -0.149059 0)
(-2.07316 -0.17592 0)
(-2.02667 -0.201129 0)
(-1.97357 -0.224539 -1.93466e-20)
(-1.9143 -0.246045 -2.06576e-20)
(-1.84932 -0.265584 0)
(-1.77911 -0.283138 0)
(-1.70416 -0.298723 4.94077e-20)
(-1.62492 -0.312379 5.28525e-20)
(-1.5418 -0.324164 -5.64997e-20)
(-1.45517 -0.334137 0)
(-1.36534 -0.342364 0)
(-1.2726 -0.348912 0)
(-1.17725 -0.353858 0)
(-1.07961 -0.357316 7.89932e-20)
(-0.980008 -0.359451 8.29913e-20)
(-0.878816 -0.36047 -8.82424e-20)
(-0.776384 -0.360631 0)
(-0.673009 -0.360235 0)
(-0.568871 -0.359626 0)
(-0.464032 -0.359091 0)
(-0.358367 -0.358749 1.18967e-19)
(-0.251433 -0.358579 0)
(-0.142449 -0.358511 0)
(-0.0315003 -0.358386 1.34808e-19)
(0.0790721 -0.357875 1.35725e-19)
(0.18941 -0.356796 0)
(0.299162 -0.355255 -2.67178e-19)
(0.407764 -0.353375 1.34347e-19)
(0.514859 -0.351122 -1.33889e-19)
(0.62035 -0.348181 0)
(0.724407 -0.344326 0)
(0.82716 -0.33958 0)
(0.928757 -0.334067 0)
(1.02932 -0.327991 -1.31907e-19)
(1.12888 -0.321541 -2.61389e-19)
(1.22742 -0.314854 -1.31113e-19)
(1.32489 -0.308028 1.3069e-19)
(1.42122 -0.301127 0)
(1.51637 -0.294195 -2.58179e-19)
(1.61029 -0.287264 -2.57285e-19)
(1.70292 -0.280352 -2.56361e-19)
(1.79422 -0.273476 2.5541e-19)
(1.88415 -0.266643 0)
(1.9727 -0.25986 3.80735e-19)
(2.05983 -0.253134 0)
(2.14553 -0.246469 -1.25183e-19)
(2.22977 -0.239871 -1.25698e-19)
(2.31253 -0.233343 0)
(2.3938 -0.226892 0)
(2.47359 -0.220522 -2.47282e-19)
(2.55187 -0.214235 0)
(2.62864 -0.208037 -2.45218e-19)
(2.70389 -0.201929 0)
(2.77763 -0.195914 2.43182e-19)
(2.84984 -0.189994 4.85075e-19)
(2.92054 -0.184169 0)
(2.98973 -0.178442 0)
(3.05741 -0.172814 0)
(3.12358 -0.167286 2.38305e-19)
(3.18826 -0.161861 0)
(3.25146 -0.15654 2.36466e-19)
(3.31319 -0.151324 0)
(3.37345 -0.146214 0)
(3.43227 -0.141212 -4.68187e-19)
(3.48965 -0.136318 0)
(3.54561 -0.131531 -2.32208e-19)
(3.60019 -0.126851 0)
(3.65338 -0.122281 -2.30652e-19)
(3.70521 -0.11782 0)
(3.7557 -0.113472 0)
(3.80487 -0.109236 0)
(3.85272 -0.105111 -6.83765e-19)
(3.89929 -0.101097 -2.27483e-19)
(3.9446 -0.0971976 0)
(3.98867 -0.0934154 0)
(4.03151 -0.0897523 0)
(4.07316 -0.086206 0)
(4.11362 -0.082771 2.24501e-19)
(4.15293 -0.079442 -4.47454e-19)
(4.19112 -0.0762165 -2.23474e-19)
(4.22822 -0.0730949 4.4553e-19)
(4.26426 -0.0700777 4.44629e-19)
(4.29925 -0.0671626 2.22093e-19)
(4.33322 -0.0643448 0)
(4.3662 -0.0616199 4.4216e-19)
(4.39822 -0.0589854 0)
(4.4293 -0.0564405 -4.40696e-19)
(4.45946 -0.0539843 -2.20176e-19)
(4.48873 -0.0516145 0)
(4.51712 -0.0493283 4.38758e-19)
(4.54466 -0.0471241 2.19235e-19)
(4.57137 -0.0450017 0)
(4.59726 -0.0429613 2.18426e-19)
(4.62236 -0.0410017 -6.5508e-19)
(4.64668 -0.0391198 0)
(4.67023 -0.0373123 0)
(4.69305 -0.0355767 0)
(4.71514 -0.0339116 0)
(4.73653 -0.0323148 -4.34688e-19)
(4.75723 -0.0307829 -4.34569e-19)
(4.77725 -0.0293114 0)
(4.79663 -0.0278962 0)
(4.81538 -0.026534 0)
(4.83351 -0.0252228 0)
(4.85104 -0.0239611 0)
(4.86799 -0.022747 0)
(4.88435 -0.0215779 -4.33026e-19)
(4.90015 -0.0204515 -1.27722e-22)
(4.91539 -0.0193679 0)
(4.93009 -0.018328 0)
(4.94426 -0.0173319 -4.32494e-19)
(4.9579 -0.0163786 0)
(4.97101 -0.0154677 4.32526e-19)
(4.98359 -0.0145996 4.32437e-19)
(4.99565 -0.0137729 0)
(5.00717 -0.0129815 0)
(5.01817 -0.0122188 -4.326e-19)
(5.02868 -0.0114805 -8.65024e-19)
(5.03871 -0.0107641 0)
(5.04827 -0.0100693 0)
(5.05736 -0.00939367 0)
(5.06599 -0.00873323 -4.32695e-19)
(5.07419 -0.00808629 4.3279e-19)
(5.08194 -0.00745189 0)
(5.08926 -0.0068287 8.66008e-19)
(5.09613 -0.0062151 4.33127e-19)
(5.10255 -0.00560873 -8.66771e-19)
(5.10853 -0.00500387 0)
(5.11404 -0.00439098 0)
(5.11911 -0.00376255 -8.68359e-19)
(5.12369 -0.00310942 -4.34559e-19)
(5.12777 -0.00242256 0)
(5.13133 -0.00169173 0)
(5.1343 -0.000900549 0)
(5.13662 -2.80885e-05 0)
(5.13822 0.000953914 -8.73755e-19)
(5.13899 0.0020848 0)
(5.13879 0.00342039 0)
(5.13744 0.00503231 0)
(5.13468 0.00702002 0)
(5.13019 0.00953007 0)
(5.12348 0.0127737 0)
(5.11389 0.0170717 -8.90157e-19)
(5.10047 0.0229347 0)
(5.08182 0.031225 0)
(5.05594 0.0435074 -1.81614e-18)
(5.01961 0.0628239 9.15604e-19)
(4.97159 0.0960041 -9.27955e-19)
(4.89148 0.153935 9.27144e-19)
(-0.0833272 1.32061 0)
(-0.182477 1.35037 -1.23788e-19)
(-0.301679 1.30524 0)
(-0.421409 1.24243 -3.88935e-20)
(-0.539485 1.17196 0)
(-0.654225 1.09895 0)
(-0.76549 1.02617 2.15109e-20)
(-0.873115 0.955114 0)
(-0.976994 0.886632 0)
(-1.07708 0.821127 0)
(-1.17331 0.758686 0)
(-1.2656 0.699194 0)
(-1.35383 0.642393 -5.37196e-20)
(-1.43782 0.587952 -2.43063e-20)
(-1.51735 0.535508 2.28388e-20)
(-1.59218 0.484692 0)
(-1.662 0.435153 0)
(-1.72647 0.386573 0)
(-1.78524 0.338676 0)
(-1.83793 0.29123 0)
(-1.88418 0.244051 -1.85773e-20)
(-1.92363 0.197014 -1.85494e-20)
(-1.95596 0.15006 1.87151e-20)
(-1.98089 0.103198 -1.90784e-20)
(-1.99811 0.0564984 0)
(-2.00727 0.0100851 0)
(-2.00803 -0.035821 -2.25665e-20)
(-2.00039 -0.0809161 0)
(-1.98434 -0.124858 0)
(-1.96 -0.16729 -2.61564e-20)
(-1.92757 -0.207875 -2.64635e-20)
(-1.88736 -0.246304 -2.82933e-20)
(-1.83975 -0.282314 0)
(-1.7852 -0.315702 0)
(-1.72423 -0.346328 3.49161e-20)
(-1.65739 -0.374115 0)
(-1.58525 -0.399042 0)
(-1.50834 -0.421136 -4.40977e-20)
(-1.42715 -0.440455 4.52142e-20)
(-1.34209 -0.45708 -4.8468e-20)
(-1.25354 -0.471112 0)
(-1.16182 -0.482669 0)
(-1.06724 -0.491897 -1.20152e-19)
(-0.970125 -0.498977 0)
(-0.870843 -0.504154 -1.36131e-19)
(-0.76978 -0.507738 -2.17827e-19)
(-0.667301 -0.510079 2.3116e-19)
(-0.56373 -0.51154 -1.62762e-19)
(-0.459328 -0.51247 0)
(-0.354097 -0.513178 0)
(-0.247621 -0.513779 -1.93152e-19)
(-0.139412 -0.514102 -1.02191e-19)
(-0.0296601 -0.513871 0)
(0.0797912 -0.512883 0)
(0.188841 -0.511058 -1.05097e-19)
(0.297154 -0.508397 -2.09173e-19)
(0.404618 -0.504954 0)
(0.511115 -0.500812 2.12075e-19)
(0.616486 -0.496045 -2.11017e-19)
(0.720612 -0.490666 2.11478e-19)
(0.823456 -0.484612 0)
(0.92507 -0.477845 0)
(1.02554 -0.470397 0)
(1.12495 -0.462358 0)
(1.22335 -0.453848 0)
(1.32075 -0.444989 2.14215e-19)
(1.41714 -0.435885 0)
(1.51249 -0.426617 0)
(1.60676 -0.417249 0)
(1.69989 -0.407827 4.26926e-19)
(1.79184 -0.398388 2.13787e-19)
(1.88257 -0.388958 2.13552e-19)
(1.97205 -0.379557 -4.25611e-19)
(2.06023 -0.3702 2.12051e-19)
(2.14709 -0.360899 -2.12611e-19)
(2.2326 -0.351665 0)
(2.31674 -0.342507 2.11825e-19)
(2.39948 -0.333435 0)
(2.4808 -0.324454 0)
(2.5607 -0.315573 0)
(2.63915 -0.306798 4.19275e-19)
(2.71615 -0.298134 -2.0881e-19)
(2.79169 -0.289589 -2.07663e-19)
(2.86575 -0.281166 -4.15687e-19)