/*--------------------------------*- C++ -*----------------------------------*\
| =========                 |                                                 |
| \\      /  F ield         | OpenFOAM: The Open Source CFD Toolbox           |
|  \\    /   O peration     | Version:  2.2.x                                 |
|   \\  /    A nd           | Web:      www.OpenFOAM.org                      |
|    \\/     M anipulation  |                                                 |
\*---------------------------------------------------------------------------*/
FoamFile
{
    version     2.0;
    format      ascii;
    class       volScalarField;
    location    "600";
    object      epsilon;
}
// * * * * * * * * * * * * * * * * * * * * * * * * * * * * * * * * * * * * * //

dimensions      [0 2 -3 0 0 0 0];

internalField   nonuniform List<scalar> 
12225
(
1739.11
3020.51
4030.08
4714.53
5131.94
5357.73
5455.55
5472.04
5439.01
5377.26
5300.06
5215.68
5129.24
5043.82
4961.18
4882.26
4806.32
4739.93
187.432
345.31
471.695
572.299
644.885
692.988
722.807
740.088
749.252
753.436
754.76
754.605
753.844
753.022
752.514
752.852
756.304
763.794
41.8453
72.5091
98.5904
120.691
138.681
152.659
163.125
170.717
176.061
179.709
182.119
183.656
184.601
185.166
185.519
185.819
186.258
186.694
20.3598
27.9831
35.4714
42.3253
48.3642
53.5234
57.8319
61.3669
64.2242
66.503
68.2982
69.6958
70.7713
71.5894
72.2055
72.668
73.0146
73.2272
16.0562
18.2138
20.6758
23.1516
25.4996
27.6467
29.5643
31.2492
32.7117
33.9687
35.0405
35.9478
36.7111
37.3493
37.8797
38.3178
38.6749
38.9488
15.0131
15.5456
16.3131
17.1966
18.1161
19.0201
19.8782
20.6743
21.4013
22.0575
22.6444
23.1657
23.6258
24.0299
24.3831
24.69
24.9544
25.1752
14.7583
14.7814
14.9213
15.1496
15.4364
15.7557
16.0877
16.4186
16.7392
17.0437
17.3286
17.5922
17.834
18.0542
18.2534
18.4325
18.5922
18.7312
14.7063
14.5999
14.5497
14.5524
14.5992
14.6794
14.7826
14.9003
15.0256
15.1533
15.2797
15.4021
15.5187
15.6285
15.7307
15.8249
15.9108
15.9868
14.6923
14.5448
14.4247
14.3339
14.2712
14.2336
14.2169
14.2168
14.2293
14.251
14.279
14.3111
14.3453
14.3803
14.4149
14.4485
14.4803
14.5088
14.6883
14.5275
14.3816
14.2517
14.1383
14.041
13.9587
13.8899
13.8329
13.786
13.7476
13.7162
13.6906
13.6695
13.652
13.6373
13.6248
13.6135
14.6872
14.5228
14.3691
14.2261
14.0938
13.9722
13.8609
13.7593
13.6669
13.5831
13.5069
13.4378
13.3749
13.3176
13.2653
13.2173
13.1732
13.1327
14.6868
14.5216
14.3659
14.2194
14.0816
13.9521
13.8307
13.717
13.6105
13.5109
13.4178
13.3308
13.2494
13.1733
13.1021
13.0354
12.973
12.9149
14.6866
14.5211
14.365
14.2176
14.0785
13.9471
13.823
13.7057
13.5949
13.4902
13.3913
13.2978
13.2094
13.1259
13.0469
12.9721
12.9015
12.8352
14.6865
14.5209
14.3646
14.217
14.0775
13.9456
13.8209
13.7028
13.5909
13.4849
13.3845
13.2892
13.1988
13.1131
13.0316
12.9543
12.8808
12.8118
14.6864
14.5207
14.3643
14.2166
14.077
13.9449
13.82
13.7017
13.5895
13.4832
13.3824
13.2867
13.1958
13.1095
13.0274
12.9494
12.8752
12.8054
14.6863
14.5206
14.3641
14.2163
14.0766
13.9445
13.8194
13.701
13.5888
13.4823
13.3813
13.2855
13.1944
13.1079
13.0257
12.9475
12.8731
12.8031
14.6863
14.5205
14.364
14.2161
14.0764
13.9442
13.8191
13.7005
13.5882
13.4817
13.3806
13.2847
13.1936
13.1069
13.0246
12.9463
12.8718
12.8017
14.6863
14.5205
14.364
14.2161
14.0763
13.9441
13.8189
13.7003
13.588
13.4814
13.3803
13.2843
13.1931
13.1064
13.024
12.9457
12.8711
12.801
14.6863
14.5205
14.364
14.2161
14.0763
13.9441
13.8189
13.7003
13.588
13.4814
13.3803
13.2842
13.193
13.1064
13.024
12.9456
12.8711
12.801
14.6863
14.5206
14.3641
14.2162
14.0765
13.9443
13.8191
13.7006
13.5883
13.4818
13.3808
13.2849
13.1938
13.1073
13.0251
12.9469
12.8726
12.8027
14.6864
14.5207
14.3642
14.2165
14.0769
13.9449
13.82
13.7019
13.5901
13.4842
13.3839
13.2889
13.1988
13.1134
13.0324
12.9556
12.8827
12.8144
14.6865
14.5209
14.3648
14.2177
14.0791
13.9486
13.8258
13.7104
13.6018
13.4999
13.404
13.314
13.2294
13.15
13.0752
13.0049
12.9389
12.8774
14.6868
14.5224
14.369
14.2265
14.095
13.9742
13.8637
13.7628
13.6711
13.5877
13.512
13.4432
13.3806
13.3236
13.2716
13.224
13.1805
13.1411
14.6896
14.5346
14.3997
14.286
14.1933
14.12
14.0639
14.0227
13.9939
13.9753
13.9649
13.961
13.962
13.9667
13.9743
13.9837
13.9945
14.0064
14.712
14.6198
14.5883
14.6113
14.6786
14.7791
14.9026
15.0409
15.1873
15.337
15.4863
15.6325
15.7737
15.9088
16.0369
16.1576
16.2708
16.3764
14.8713
15.1221
15.5436
16.0692
16.6494
17.249
17.845
18.4229
18.9738
19.4928
19.9773
20.4265
20.8407
21.221
21.5687
21.8856
22.1737
22.4347
15.8759
17.7061
19.7886
21.8988
23.9446
25.8789
27.6793
29.337
30.8507
32.2233
33.4604
34.5697
35.5598
36.4399
37.2192
37.9066
38.5105
39.039
22.1652
31.1005
39.3162
46.8943
53.8926
60.282
66.0507
71.2053
75.7641
79.7566
83.2217
86.2047
88.7537
90.9171
92.7406
94.2655
95.5251
96.5387
68.0189
114.9
154.783
191.789
226.038
256.866
283.965
307.312
327.064
343.513
357.021
367.979
376.771
383.747
389.219
393.445
396.609
398.717
723.143
1065.45
1375.75
1655.21
1913.04
2142.31
2339.72
2504.91
2639.55
2746.5
2829.14
2890.98
2935.36
2965.32
2983.53
2992.3
2993.58
2988.87
0.623575
0.576877
0.815821
1.0394
1.28728
1.56149
1.92291
2.35567
2.86191
3.43739
4.07562
4.77163
5.52205
6.32447
7.17719
8.07889
9.02868
10.026
11.0705
12.1625
13.3021
14.4901
15.7276
17.0157
18.3562
19.751
21.2024
22.7132
24.2866
25.9265
27.6376
29.4255
31.2972
33.2617
35.33
37.5167
39.8408
42.3013
44.8761
47.5686
50.3834
53.3257
56.4001
59.6118
62.9656
66.4662
70.1186
73.9276
77.8979
82.0341
86.3407
90.8223
95.4831
100.327
105.359
110.581
115.998
121.614
127.429
133.449
139.674
146.108
152.751
159.605
166.67
173.948
181.438
189.139
197.051
205.171
213.498
222.028
230.758
239.684
248.802
258.105
267.588
277.243
287.064
297.041
307.166
317.429
327.818
338.322
348.928
359.623
370.393
381.222
392.095
402.995
413.904
424.804
435.677
446.505
457.271
467.957
478.549
489.035
499.408
509.669
519.829
529.92
539.989
549.828
559.435
568.804
577.928
586.8
595.412
603.758
611.831
619.626
627.136
634.356
641.281
647.907
654.23
660.247
665.954
671.349
676.431
681.197
685.645
689.773
693.581
697.066
700.226
703.06
705.565
707.741
709.585
711.094
712.265
713.093
713.574
713.702
713.47
712.871
711.893
710.526
708.756
706.57
703.947
700.87
697.316
693.259
688.679
683.543
677.827
671.494
664.523
656.881
648.553
639.524
629.672
619.263
608.668
599.233
594.618
590.345
585.588
580.239
574.295
567.775
560.713
553.156
545.155
536.766
528.046
519.049
509.827
500.419
490.853
481.131
471.215
460.977
450.153
437.97
422.944
403.121
2.00571
1.08243
1.03808
1.16371
1.35808
1.60426
1.90025
2.24146
2.62159
3.03409
3.47381
3.93729
4.42244
4.92802
5.45336
5.99819
6.56254
7.14667
7.75111
8.37655
9.02389
9.69417
10.3886
11.1084
11.8552
12.6304
13.4358
14.2732
15.1447
16.0524
16.9986
17.9859
19.0169
20.0943
21.2208
22.3991
23.6308
24.9164
26.2559
27.6508
29.1027
30.6135
32.185
33.8188
35.5169
37.2807
39.1121
41.0126
42.9837
45.027
47.1439
49.3357
51.6038
53.9492
56.373
58.8763
61.4599
64.1246
66.8708
69.6992
72.6101
75.6035
78.6796
81.8381
85.0788
88.401
91.804
95.2869
98.8486
102.488
106.203
109.991
113.852
117.782
121.78
125.841
129.964
134.144
138.379
142.664
146.996
151.37
155.781
160.225
164.697
169.191
173.703
178.226
182.754
187.282
191.804
196.314
200.807
205.276
209.717
214.125
218.498
222.832
227.127
231.384
235.609
239.808
244.011
248.138
252.177
256.126
259.981
263.739
267.398
270.954
274.404
277.748
280.982
284.105
287.115
290.011
292.79
295.453
297.998
300.424
302.731
304.919
306.986
308.933
310.759
312.463
314.046
315.506
316.843
318.056
319.144
320.107
320.942
321.648
322.221
322.66
322.961
323.119
323.13
322.987
322.685
322.215
321.568
320.736
319.707
318.468
317.009
315.315
313.372
311.163
308.674
305.888
302.79
299.366
295.573
291.451
287.264
283.177
279.846
276.559
273.096
269.41
265.5
261.377
257.058
252.566
247.924
243.158
238.295
233.359
228.376
223.369
218.357
213.357
208.381
203.433
198.515
193.628
188.896
187.186
3.6164
1.82083
1.61183
1.6625
1.81703
2.03854
2.31353
2.63305
2.9888
3.37338
3.78097
4.20765
4.65104
5.10994
5.58391
6.073
6.57762
7.0984
7.63619
8.19192
8.76666
9.36159
9.97793
10.617
11.2801
11.9687
12.6843
13.4284
14.2025
15.0082
15.8472
16.7211
17.6315
18.5799
19.5679
20.5966
21.6673
22.7809
23.9386
25.1416
26.3913
27.689
29.036
30.4338
31.8835
33.3864
34.9439
36.5569
38.2268
39.9546
41.7413
43.588
45.4956
47.4649
49.4968
51.5919
53.7509
55.9744
58.2626
60.6161
63.0351
65.5195
68.0695
70.6849
73.3653
76.1104
78.9195
81.7919
84.7267
87.7228
90.7789
93.8937
97.0654
100.292
103.572
106.903
110.283
113.709
117.178
120.687
124.234
127.814
131.426
135.064
138.726
142.407
146.103
149.811
153.526
157.244
160.96
164.67
168.37
172.056
175.724
179.37
182.991
186.585
190.149
193.682
197.184
200.658
204.088
207.453
210.747
213.964
217.103
220.159
223.131
226.016
228.811
231.515
234.125
236.64
239.058
241.378
243.598
245.718
247.736
249.652
251.466
253.176
254.783
256.287
257.686
258.982
260.173
261.26
262.241
263.118
263.888
264.552
265.108
265.556
265.893
266.118
266.228
266.22
266.091
265.836
265.45
264.929
264.265
263.45
262.478
261.337
260.02
258.515
256.81
254.893
252.75
250.368
247.729
244.821
241.677
238.321
234.87
231.401
228.073
224.699
221.195
217.54
213.737
209.798
205.736
201.572
197.323
193.012
188.658
184.282
179.905
175.546
171.223
166.954
162.757
158.657
154.688
150.934
147.616
146.031
5.26414
2.59713
2.20013
2.17949
2.296
2.49183
2.74561
3.04554
3.38271
3.7498
4.14098
4.55204
4.98026
5.42411
5.88293
6.3567
6.84581
7.35091
7.87287
8.41268
8.97142
9.55026
10.1504
10.7731
11.4195
12.0911
12.7892
13.515
14.2699
15.0553
15.8725
16.7229
17.6077
18.5282
19.4857
20.4812
21.5161
22.5913
23.7081
24.8677
26.0715
27.3206
28.6165
29.9602
31.3531
32.7963
34.2912
35.8388
37.4403
39.0968
40.8094
42.5791
44.4069
46.2937
48.2404
50.2479
52.3168
54.4478
56.6414
58.8983
61.2187
63.603
66.0513
68.5636
71.1399
73.78
76.4835
79.2498
82.0784
84.9682
87.9185
90.9279
93.995
97.1184
100.296
103.527
106.808
110.137
113.511
116.929
120.387
123.883
127.412
130.973
134.561
138.173
141.804
145.453
149.113
152.782
156.454
160.127
163.794
167.453
171.098
174.726
178.332
181.911
185.462
188.98
192.462
195.898
199.276
202.584
205.817
208.97
212.04
215.023
217.916
220.716
223.42
226.027
228.533
230.936
233.236
235.429
237.515
239.492
241.359
243.116
244.762
246.296
247.718
249.029
250.227
251.314
252.289
253.151
253.902
254.541
255.068
255.483
255.787
255.978
256.055
256.018
255.865
255.594
255.204
254.691
254.05
253.279
252.372
251.323
250.126
248.772
247.254
245.561
243.684
241.609
239.327
236.817
234.103
231.178
228.059
224.771
221.372
217.907
214.416
210.84
207.147
203.331
199.398
195.361
191.235
187.037
182.786
178.501
174.2
169.902
165.627
161.392
157.216
153.117
149.117
145.244
141.543
138.102
135.097
133.114
7.6546
3.46636
2.79434
2.67884
2.74841
2.91414
3.14438
3.42363
3.742
4.09217
4.46848
4.86672
5.28398
5.71846
6.16925
6.63608
7.11917
7.61906
8.13654
8.67252
9.22804
9.8042
10.4022
11.0231
11.6682
12.3388
13.036
13.7611
14.5153
15.3
16.1163
16.9655
17.8488
18.7675
19.7227
20.7156
21.7475
22.8195
23.933
25.0893
26.2897
27.5354
28.8279
30.1684
31.5584
32.9991
34.4918
36.0379
37.6387
39.2955
41.0094
42.7817
44.6136
46.5063
48.4608
50.4782
52.5595
54.7057
56.9174
59.1956
61.5409
63.9538
66.4349
68.9844
71.6025
74.2894
77.045
79.8689
82.7608
85.7201
88.7461
91.8378
94.9939
98.2132
101.494
104.835
108.233
111.688
115.195
118.754
122.36
126.011
129.705
133.436
137.203
141.002
144.828
148.678
152.547
156.431
160.325
164.226
168.126
172.023
175.909
179.78
183.631
187.455
191.247
195.002
198.712
202.36
205.938
209.436
212.849
216.171
219.399
222.527
225.552
228.47
231.278
233.974
236.553
239.013
241.353
243.569
245.66
247.625
249.462
251.171
252.75
254.199
255.517
256.706
257.765
258.694
259.494
260.165
260.707
261.122
261.41
261.571
261.607
261.518
261.305
260.967
260.503
259.914
259.2
258.357
257.384
256.279
255.037
253.654
252.125
250.444
248.603
246.593
244.406
242.025
239.468
236.719
233.788
230.678
227.4
223.974
220.431
216.796
213.08
209.263
205.336
201.299
197.164
192.944
188.653
184.31
179.931
175.535
171.141
166.768
162.432
158.153
153.949
149.84
145.848
142.003
138.352
134.971
131.983
129.674
10.2153
4.34125
3.36191
3.13968
3.15681
3.28976
3.49527
3.75346
4.05293
4.38606
4.74727
5.13244
5.53864
5.96395
6.40723
6.86804
7.34639
7.84268
8.35755
8.89183
9.44646
10.0225
10.621
11.2432
11.8901
12.5631
13.2632
13.9917
14.7498
15.5388
16.3598
17.2141
18.103
19.0276
19.9893
20.9894
22.0291
23.1099
24.233
25.3999
26.612
27.8707
29.1777
30.5343
31.9421
33.4026
34.9173
36.4878
38.1156
39.8022
41.5493
43.3581
45.2304
47.1675
49.1708
51.2418
53.3817
55.5919
57.8736
60.2279
62.6558
65.1582
67.7361
70.3901
73.1208
75.9285
78.8136
81.7762
84.816
87.9329
91.1264
94.3956
97.7397
101.158
104.648
108.208
111.838
115.534
119.294
123.116
126.996
130.933
134.921
138.959
143.042
147.166
151.327
155.521
159.743
163.989
168.252
172.527
176.809
181.091
185.367
189.63
193.872
198.086
202.265
206.402
210.476
214.476
218.392
222.215
225.939
229.558
233.065
236.456
239.726
242.87
245.885
248.766
251.509
254.112
256.571
258.884
261.048
263.061
264.923
266.63
268.184
269.582
270.825
271.914
272.848
273.628
274.255
274.731
275.055
275.229
275.255
275.135
274.87
274.463
273.915
273.227
272.4
271.436
270.336
269.099
267.725
266.214
264.564
262.772
260.831
258.744
256.497
254.087
251.523
248.79
245.897
242.839
239.621
236.247
232.726
229.07
225.298
221.425
217.453
213.376
209.194
204.914
200.548
196.109
191.614
187.078
182.519
177.957
173.408
168.891
164.425
160.028
155.719
151.518
147.449
143.542
139.84
136.408
133.326
130.74
12.7629
5.17807
3.88438
3.55163
3.51402
3.61303
3.7935
4.0308
4.3117
4.62796
4.97392
5.34554
5.7399
6.15505
6.58977
7.04347
7.51602
8.00767
8.51895
9.05059
9.60345
10.1785
10.7768
11.3995
12.0476
12.7224
13.425
14.1567
14.9187
15.7122
16.5384
17.3988
18.2945
19.2269
20.1974
21.2074
22.2583
23.3516
24.4887
25.6714
26.9011
28.1796
29.5085
30.8896
32.3246
33.8153
35.3635
36.9711
38.6398
40.3716
42.1684
44.0319
45.9642
47.967
50.0421
52.1914
54.4167
56.7196
59.1018
61.5649
64.1104
66.7395
69.4538
72.2541
75.1416
78.1171
81.1813
84.3345
87.5771
90.909
94.3301
97.84
101.438
105.123
108.893
112.748
116.684
120.701
124.796
128.966
133.207
137.518
141.893
146.33
150.824
155.37
159.966
164.604
169.281
173.989
178.725
183.48
188.248
193.021
197.791
202.551
207.29
211.999
216.669
221.284
225.821
230.268
234.616
238.856
242.98
246.98
250.85
254.582
258.172
261.612
264.899
268.028
270.993
273.79
276.417
278.869
281.144
283.239
285.152
286.881
288.426
289.786
290.96
291.95
292.755
293.377
293.818
294.078
294.159
294.063
293.793
293.352
292.743
291.97
291.036
289.942
288.692
287.29
285.739
284.042
282.198
280.207
278.077
275.804
273.374
270.813
268.106
265.255
262.262
259.126
255.848
252.43
248.874
245.185
241.368
237.431
233.385
229.238
224.991
220.643
216.199
211.667
207.059
202.388
197.672
192.925
188.165
183.41
178.679
173.989
169.359
164.809
160.356
156.023
151.833
147.817
144.012
140.47
137.242
134.408
15.1899
5.9546
4.35401
3.9117
3.81909
3.88389
4.03935
4.2561
4.51885
4.81856
5.14931
5.50702
5.88884
6.2928
6.71767
7.16278
7.62791
8.11321
8.61912
9.14629
9.69551
10.2677
10.8639
11.4852
12.1326
12.8074
13.5108
14.244
15.0083
15.8049
16.6353
17.5007
18.4025
19.3423
20.3214
21.3415
22.4041
23.5109
24.6636
25.864
27.1139
28.4152
29.7698
31.1798
32.6472
34.1741
35.7626
37.4151
39.1336
40.9205
42.7781
44.7086
46.7144
48.7978
50.9612
53.2067
55.5367
57.9535
60.459
63.0555
65.745
68.5293
71.4102
74.3894
77.4684
80.6483
83.9304
87.3155
90.8042
94.397
98.094
101.895
105.799
109.806
113.915
118.123
122.43
126.832
131.327
135.913
140.586
145.343
150.179
155.09
160.072
165.12
170.229
175.393
180.605
185.86
191.151
196.469
201.807
207.156
212.505
217.845
223.165
228.452
233.695
238.858
243.93
248.896
253.746
258.47
263.058
267.501
271.791
275.92
279.881
283.667
287.271
290.688
293.912
296.938
299.762
302.378
304.784
306.977
308.953
310.712
312.252
313.572
314.672
315.552
316.214
316.659
316.888
316.904
316.709
316.306
315.699
314.892
313.889
312.696
311.318
309.759
308.023
306.115
304.044
301.815
299.43
296.882
294.2
291.378
288.414
285.321
282.099
278.751
275.28
271.689
267.981
264.156
260.219
256.172
252.019
247.764
243.413
238.97
234.436
229.811
225.102
220.315
215.464
210.561
205.62
200.658
195.691
190.738
185.815
180.94
176.134
171.415
166.802
162.317
157.985
153.833
149.896
146.213
142.817
139.752
17.4264
6.65766
4.76778
4.22041
4.0741
4.1051
4.23583
4.43237
4.67737
4.96082
5.27647
5.62013
5.98892
6.38092
6.79487
7.23007
7.68628
8.16359
8.66237
9.18321
9.72688
10.2943
10.8863
11.5042
12.149
12.8219
13.5241
14.257
15.0219
15.82
16.653
17.5221
18.429
19.3753
20.3625
21.3925
22.4669
23.5877
24.7569
25.9763
27.2482
28.5747
29.9581
31.4006
32.9049
34.4732
36.1082
37.8126
39.5889
41.4399
43.3684
45.3773
47.4693
49.6473
51.9141
54.2727
56.7258
59.2763
61.9268
64.6801
67.5388
70.5052
73.5817
76.7706
80.0738
83.493
87.03
90.686
94.4621
98.359
102.377
106.517
110.777
115.158
119.658
124.276
129.01
133.857
138.815
143.88
149.049
154.317
159.68
165.134
170.673
176.292
181.984
187.743
193.563
199.435
205.352
211.304
217.283
223.277
229.276
235.265
241.233
247.165
253.031
258.8
264.459
269.996
275.397
280.652
285.748
290.676
295.425
299.987
304.352
308.513
312.461
316.19
319.692
322.963
325.997
328.788
331.331
333.624
335.662
337.445
338.97
340.238
341.247
341.998
342.492
342.732
342.718
342.455
341.945
341.192
340.202
338.978
337.527
335.857
333.975
331.888
329.601
327.116
324.453
321.622
318.628
315.472
312.176
308.744
305.181
301.499
297.704
293.802
289.8
285.703
281.514
277.238
272.876
268.431
263.905
259.301
254.621
249.865
245.034
240.129
235.154
230.116
225.026
219.894
214.736
209.564
204.395
199.246
194.135
189.078
184.095
179.205
174.428
169.786
165.302
161.004
156.92
153.083
149.509
146.23
19.4239
7.27877
5.12484
4.47977
4.28242
4.28072
4.38729
4.56404
4.79164
5.05917
5.35992
5.68952
6.04508
6.42464
6.82698
7.25139
7.69761
8.1657
8.65601
9.16912
9.70575
10.2668
10.8533
11.4662
12.1069
12.7764
13.4761
14.2074
14.9717
15.7704
16.6052
17.4775
18.3892
19.3419
20.3375
21.378
22.4653
23.6016
24.7892
26.0302
27.3272
28.6827
30.0994
31.5799
33.127
34.7439
36.4334
38.1986
40.0429
41.9694
43.9815
46.0826
48.2762
50.5656
52.9544
55.4461
58.044
60.7517
63.5725
66.5096
69.5664
72.7458
76.0509
79.4844
83.0487
86.7463
90.5792
94.5491
98.6576
102.906
107.294
111.823
116.492
121.302
126.25
131.335
136.556
141.909
147.39
152.997
158.725
164.57
170.525
176.587
182.748
189.002
195.343
201.762
208.252
214.804
221.409
228.056
234.735
241.432
248.135
254.828
261.495
268.114
274.635
281.043
287.322
293.459
299.44
305.25
310.877
316.309
321.535
326.544
331.325
335.869
340.167
344.21
347.993
351.506
354.745
357.702
360.372
362.75
364.834
366.622
368.11
369.3
370.19
370.781
371.074
371.071
370.775
370.19
369.319
368.169
366.744
365.05
363.091
360.884
358.437
355.759
352.859
349.744
346.434
342.94
339.274
335.447
331.476
327.373
323.149
318.818
314.392
309.88
305.291
300.634
295.915
291.139
286.309
281.427
276.494
271.512
266.479
261.396
256.26
251.072
245.833
240.548
235.227
229.878
224.512
219.143
213.785
208.454
203.165
197.936
192.786
187.734
182.799
178.003
173.37
168.924
164.691
160.695
156.946
153.469
21.1498
7.81265
5.42556
4.69241
4.4479
4.41529
4.49866
4.65624
4.86696
5.11898
5.40518
5.72099
6.06342
6.43052
6.82106
7.23436
7.67013
8.12847
8.60971
9.11443
9.64336
10.1974
10.7776
11.3851
12.0211
12.6869
13.384
14.1137
14.8776
15.6773
16.5146
17.3912
18.3091
19.2701
20.2765
21.3303
22.4339
23.5898
24.8005
26.0686
27.397
28.7887
30.2467
31.7743
33.3747
35.0515
36.8081
38.6484
40.5761
42.5951
44.7094
46.9231
49.2402
51.6649
54.2014
56.8539
59.6264
62.523
65.5478
68.7049
71.9979
75.4307
79.0067
82.7293
86.6016
90.6263
94.806
99.1428
103.638
108.294
113.111
118.09
123.229
128.53
133.99
139.608
145.381
151.306
157.379
163.595
169.95
176.437
183.05
189.784
196.631
203.583
210.632
217.77
224.987
232.273
239.618
247.009
254.433
261.876
269.322
276.755
284.154
291.456
298.644
305.701
312.607
319.348
325.908
332.272
338.426
344.356
350.049
355.492
360.674
365.584
370.213
374.55
378.587
382.318
385.734
388.828
391.592
394.022
396.116
397.87
399.282
400.353
401.081
401.467
401.512
401.218
400.589
399.63
398.346
396.744
394.83
392.612
390.097
387.302
384.236
380.912
377.344
373.543
369.529
365.316
360.923
356.366
351.663
346.831
341.889
336.852
331.737
326.559
321.329
316.06
310.761
305.437
300.095
294.737
289.364
283.976
278.57
273.144
267.696
262.221
256.721
251.198
245.657
240.104
234.548
229
223.471
217.976
212.53
207.148
201.848
196.649
191.571
186.634
181.861
177.274
172.897
168.749
164.833
161.175
22.5848
8.25656
5.67109
4.86124
4.57452
4.51353
4.57516
4.71458
4.90921
5.14647
5.4188
5.72147
6.0514
6.40661
6.78587
7.18851
7.61428
8.06328
8.53588
9.03268
9.55446
10.1022
10.6769
11.2799
11.9125
12.576
13.272
14.0021
14.7681
15.5717
16.4149
17.2997
18.2282
19.2028
20.2257
21.2996
22.4271
23.6111
24.8544
26.1603
27.5321
28.9732
30.4872
32.0778
33.7491
35.5052
37.3501
39.2884
41.3244
43.4629
45.7086
48.0663
50.5408
53.1371
55.86
58.7145
61.7053
64.8373
68.1151
71.5433
75.1266
78.8691
82.7749
86.8479
91.0916
95.5091
100.103
104.876
109.83
114.966
120.286
125.788
131.474
137.343
143.391
149.619
156.021
162.595
169.335
176.234
183.287
190.486
197.826
205.297
212.891
220.6
228.413
236.321
244.312
252.374
260.496
268.663
276.86
285.07
293.276
301.458
309.545
317.516
325.355
333.037
340.544
347.858
354.965
361.847
368.488
374.874
380.99
386.822
392.357
397.584
402.491
407.068
411.306
415.197
418.736
421.908
424.707
427.13
429.173
430.833
432.109
432.999
433.503
433.623
433.36
432.716
431.697
430.308
428.554
426.444
423.986
421.19
418.067
414.631
410.896
406.876
402.588
398.05
393.281
388.301
383.131
377.793
372.308
366.698
360.986
355.193
349.339
343.444
337.524
331.594
325.668
319.754
313.859
307.989
302.144
296.324
290.525
284.744
278.975
273.215
267.459
261.707
255.96
250.221
244.495
238.791
233.116
227.483
221.904
216.394
210.969
205.647
200.446
195.388
190.492
185.78
181.272
176.984
172.917
169.097
23.7221
8.60992
5.86316
4.98933
4.66633
4.58025
4.62228
4.74515
4.92508
5.14889
5.40869
5.69958
6.01842
6.36321
6.73272
7.12632
7.5438
7.98529
8.45123
8.94226
9.45927
10.0033
10.5755
11.1773
11.8101
12.4755
13.1752
13.9111
14.6852
15.4994
16.3561
17.2575
18.2063
19.205
20.2564
21.3634
22.5293
23.7574
25.0512
26.4144
27.8508
29.3646
30.9601
32.6417
34.414
36.2819
38.2505
40.3247
42.5101
44.812
47.236
49.7878
52.4731
55.2977
58.2673
61.3874
64.6634
68.1007
71.7045
75.4803
79.4329
83.5671
87.8875
92.398
97.1024
102.004
107.105
112.409
117.917
123.629
129.547
135.671
141.998
148.529
155.26
162.188
169.311
176.623
184.114
191.778
199.606
207.59
215.723
223.993
232.392
240.907
249.528
258.242
267.037
275.898
284.811
293.761
302.729
311.695
320.639
329.479
338.198
346.78
355.209
363.451
371.487
379.3
386.875
394.194
401.24
407.996
414.448
420.58
426.379
431.831
436.925
441.65
445.996
449.954
453.516
456.673
459.418
461.746
463.652
465.134
466.191
466.82
467.023
466.799
466.154
465.088
463.61
461.722
459.435
456.755
453.693
450.262
446.474
442.344
437.888
433.125
428.072
422.752
417.186
411.397
405.41
399.251
392.944
386.517
379.996
373.407
366.775
360.123
353.472
346.843
340.252
333.712
327.232
320.819
314.476
308.203
301.995
295.849
289.758
283.713
277.709
271.741
265.806
259.903
254.033
248.2
242.409
236.668
230.989
225.382
219.863
214.448
209.153
203.999
199.004
194.189
189.57
185.162
180.964
177.006
24.5686
8.87428
6.00407
5.08
4.72762
4.62069
4.64619
4.75506
4.92267
5.13537
5.38507
5.66676
5.97726
6.31457
6.6775
7.06547
7.47834
7.91633
8.37997
8.87003
9.38751
9.93361
10.5097
11.1174
11.7583
12.4343
13.1474
13.8999
14.6939
15.532
16.4169
17.3514
18.3384
19.3811
20.4828
21.6472
22.878
24.1792
25.5551
27.01
28.5487
30.1762
31.8974
33.7177
35.6427
37.6781
39.8297
42.1037
44.5064
47.044
49.7231
52.5504
55.5325
58.6761
61.9879
65.474
69.1393
72.9899
77.0316
81.2701
85.7105
90.3578
95.2164
100.29
105.583
111.097
116.835
122.798
128.988
135.405
142.047
148.914
156.003
163.313
170.838
178.575
186.519
194.669
203.006
211.516
220.195
229.031
238.014
247.133
256.375
265.727
275.174
284.703
294.298
303.944
313.622
323.317
333.007
342.651
352.174
361.565
370.804
379.873
388.754
397.422
405.855
414.036
421.945
429.566
436.879
443.869
450.518
456.812
462.736
468.277
473.422
478.161
482.481
486.376
489.835
492.852
495.419
497.53
499.183
500.373
501.099
501.36
501.158
500.493
499.37
497.793
495.767
493.301
490.402
487.079
483.346
479.217
474.705
469.827
464.602
459.049
453.191
447.051
440.653
434.023
427.19
420.183
413.029
405.761
398.407
390.999
383.565
376.133
368.729
361.377
354.098
346.909
339.823
332.85
325.993
319.255
312.632
306.118
299.705
293.384
287.145
280.979
274.879
268.838
262.854
256.926
251.054
245.243
239.501
233.835
228.26
222.787
217.434
212.216
207.153
202.263
197.559
193.057
188.753
184.682
25.1473
9.05372
6.09697
5.13719
4.7635
4.64131
4.6548
4.75377
4.91307
5.1188
5.36276
5.6399
5.94708
6.28235
6.64461
7.03338
7.44864
7.89079
8.36054
8.85887
9.38701
9.94641
10.5388
11.1659
11.83
12.5334
13.2783
14.0677
14.9043
15.7912
16.7317
17.7294
18.7881
19.9117
21.1041
22.3699
23.7137
25.1405
26.6556
28.2643
29.9726
31.7862
33.7114
35.7547
37.9226
40.2218
42.6594
45.2425
47.9782
50.8738
53.9368
57.1746
60.5946
64.2047
68.013
72.0271
76.2467
80.6794
85.3314
90.2082
95.3146
100.655
106.233
112.052
118.113
124.419
130.97
137.766
144.807
152.091
159.615
167.377
175.371
183.592
192.035
200.693
209.558
218.622
227.87
237.289
246.868
256.594
266.452
276.43
286.51
296.678
306.918
317.211
327.54
337.89
348.234
358.559
368.783
378.866
388.795
398.556
408.129
417.498
426.641
435.539
444.171
452.517
460.558
468.277
475.656
482.676
489.323
495.58
501.434
506.87
511.876
516.441
520.555
524.208
527.392
530.099
532.324
534.061
535.305
536.055
536.309
536.067
535.329
534.099
532.382
530.182
527.507
524.364
520.763
516.716
512.236
507.338
502.04
496.359
490.315
483.931
477.23
470.239
462.984
455.494
447.8
439.932
431.924
423.808
415.619
407.389
399.151
390.939
382.781
374.705
366.737
358.898
351.205
343.67
336.3
329.1
322.066
315.193
308.473
301.892
295.439
289.101
282.865
276.72
270.659
264.675
258.764
252.926
247.165
241.485
235.896
230.409
225.037
219.796
214.702
209.771
205.015
200.449
196.069
191.915
25.5038
9.15572
6.14654
5.16651
4.7814
4.65169
4.66014
4.756
4.91393
5.12
5.36603
5.64707
5.96009
6.30331
6.67579
7.07728
7.50803
7.96875
8.4605
8.9847
9.54296
10.1371
10.7694
11.4424
12.1587
12.9213
13.7336
14.5991
15.5215
16.5049
17.5537
18.6726
19.8667
21.1419
22.502
23.9529
25.501
27.1525
28.9143
30.7932
32.7963
34.931
37.2048
39.6254
42.2007
44.9383
47.8464
50.9329
54.2056
57.6726
61.3415
65.22
69.3155
73.6351
78.1856
82.9727
88.0002
93.2727
98.7945
104.569
110.6
116.889
123.438
130.248
137.317
144.646
152.232
160.072
168.163
176.501
185.078
193.891
202.93
212.187
221.655
231.321
241.177
251.208
261.401
271.741
282.212
292.798
303.482
314.247
325.075
335.947
346.847
357.751
368.638
379.504
390.268
400.863
411.293
421.543
431.6
441.447
451.069
460.449
469.568
478.407
486.947
495.169
503.055
510.588
517.75
524.524
530.895
536.848
542.369
547.444
552.061
556.21
559.879
563.062
565.748
567.933
569.609
570.772
571.419
571.547
571.154
570.243
568.815
566.873
564.423
561.471
558.026
554.095
549.691
544.826
539.516
533.776
527.626
521.086
514.177
506.923
499.35
491.487
483.361
475.004
466.448
457.727
448.876
439.929
430.924
421.896
412.881
403.915
395.03
386.259
377.629
369.166
360.89
352.818
344.96
337.322
329.902
322.697
315.696
308.887
302.253
295.779
289.446
283.241
277.148
271.155
265.255
259.441
253.712
248.069
242.517
237.065
231.722
226.503
221.42
216.488
211.719
207.126
202.706
198.501
25.7167
9.19353
6.16114
5.17804
4.79463
4.66917
4.68408
4.78866
4.95772
5.17755
5.44022
5.74104
6.07729
6.44757
6.85136
7.28877
7.7606
8.26823
8.81352
9.39892
10.0268
10.6992
11.4197
12.1919
13.0198
13.9079
14.8606
15.8832
16.9809
18.1596
19.4253
20.7847
22.2446
23.8122
25.4948
27.3
29.2359
31.311
33.5338
35.913
38.4574
41.1758
44.077
47.1698
50.4627
53.9641
57.682
61.6243
65.7983
70.2111
74.8694
79.7791
84.9456
90.3737
96.0671
102.029
108.26
114.762
121.534
128.578
135.891
143.472
151.319
159.427
167.792
176.409
185.271
194.371
203.702
213.256
223.023
232.994
243.156
253.499
264.011
274.678
285.486
296.42
307.463
318.599
329.81
341.076
352.377
363.696
375.012
386.294
397.544
408.728
419.774
430.611
441.252
451.687
461.91
471.91
481.675
491.194
500.45
509.43
518.116
526.493
534.543
542.249
549.595
556.564
563.139
569.306
575.05
580.356
585.211
589.603
593.519
596.95
599.885
602.318
604.239
605.643
606.525
606.879
606.704
605.997
604.758
602.989
600.692
597.871
594.534
590.686
586.338
581.5
576.184
570.404
564.177
557.522
550.457
543.005
535.19
527.036
518.572
509.827
500.831
491.617
482.219
472.672
463.013
453.278
443.505
433.732
423.996
414.336
404.786
395.38
386.15
377.124
368.325
359.773
351.482
343.458
335.705
328.218
320.987
313.998
307.235
300.676
294.301
288.089
282.02
276.077
270.245
264.514
258.876
253.328
247.872
242.51
237.251
232.105
227.083
222.198
217.459
212.881
208.459
204.243
25.9409
9.193
6.15861
5.19359
4.83177
4.73054
4.77282
4.90855
5.11315
5.37349
5.68229
6.03553
6.43123
6.86899
7.34956
7.87305
8.44177
9.05855
9.72675
10.4503
11.2334
12.0808
12.998
13.9909
15.066
16.2303
17.4914
18.8572
20.3364
21.9377
23.6707
25.5451
27.571
29.7588
32.1189
34.6621
37.399
40.34
43.4955
46.8754
50.4893
54.3459
58.4536
62.8198
67.4511
72.3532
77.5308
82.9877
88.7271
94.7508
101.06
107.655
114.535
121.697
129.139
136.856
144.843
153.094
161.602
170.36
179.362
188.598
198.06
207.74
217.626
227.709
237.977
248.421
259.028
269.787
280.686
291.711
302.85
314.09
325.415
336.81
348.261
359.753
371.265
382.778
394.278
405.742
417.14
428.47
439.711
450.796
461.658
472.271
482.651
492.792
502.693
512.35
521.759
530.912
539.8