/*--------------------------------*- C++ -*----------------------------------*\
| =========                 |                                                 |
| \\      /  F ield         | OpenFOAM: The Open Source CFD Toolbox           |
|  \\    /   O peration     | Version:  2.2.x                                 |
|   \\  /    A nd           | Web:      www.OpenFOAM.org                      |
|    \\/     M anipulation  |                                                 |
\*---------------------------------------------------------------------------*/
FoamFile
{
    version     2.0;
    format      ascii;
    class       volScalarField;
    location    "600";
    object      k;
}
// * * * * * * * * * * * * * * * * * * * * * * * * * * * * * * * * * * * * * //

dimensions      [0 2 -2 0 0 0 0];

internalField   nonuniform List<scalar> 
12225
(
0.773254
1.11727
1.35409
1.50336
1.59084
1.63716
1.65703
1.66036
1.65368
1.64114
1.62539
1.60809
1.59028
1.57257
1.55535
1.53881
1.52281
1.50875
0.492803
0.515897
0.520062
0.519336
0.515967
0.511065
0.505593
0.500233
0.495407
0.491345
0.488151
0.485843
0.484394
0.483751
0.483861
0.484758
0.48705
0.490694
0.412017
0.424095
0.421858
0.414168
0.404224
0.393409
0.382461
0.371809
0.361712
0.352321
0.343712
0.335915
0.328924
0.322712
0.317243
0.312485
0.308402
0.30481
0.381869
0.385949
0.386337
0.383939
0.379748
0.374467
0.368564
0.362355
0.35605
0.349796
0.343694
0.337809
0.332186
0.326852
0.32182
0.317095
0.312667
0.308535
0.375243
0.375519
0.374935
0.373413
0.371106
0.368205
0.364883
0.361285
0.357522
0.353679
0.34982
0.345994
0.342236
0.338573
0.335024
0.331602
0.328313
0.325183
0.373469
0.372204
0.370886
0.369331
0.367504
0.365429
0.363154
0.360729
0.358201
0.355611
0.352991
0.350369
0.347768
0.345204
0.342691
0.340239
0.337858
0.335573
0.372982
0.371101
0.36935
0.367626
0.365876
0.364075
0.362219
0.360314
0.358375
0.356415
0.354448
0.352486
0.350541
0.348621
0.346735
0.34489
0.343091
0.34136
0.372867
0.370792
0.36886
0.367023
0.365244
0.363498
0.36177
0.360052
0.358343
0.356647
0.354967
0.353307
0.351673
0.350067
0.348495
0.346959
0.345464
0.344027
0.372829
0.37068
0.368664
0.366759
0.364944
0.363201
0.361515
0.359875
0.358276
0.356713
0.355185
0.353692
0.352233
0.350811
0.349425
0.348077
0.346768
0.345514
0.372814
0.370635
0.368578
0.366633
0.364788
0.363032
0.361354
0.359745
0.358197
0.356704
0.355263
0.353869
0.352521
0.351216
0.349954
0.348734
0.347555
0.34643
0.372807
0.370616
0.368542
0.366578
0.364715
0.362946
0.361263
0.35966
0.358129
0.356665
0.355263
0.353919
0.352629
0.351391
0.3502
0.349055
0.347956
0.346912
0.372803
0.370607
0.368526
0.366553
0.36468
0.362903
0.361214
0.359608
0.358079
0.356623
0.355234
0.353908
0.352642
0.351432
0.350275
0.349167
0.348108
0.347106
0.3728
0.370601
0.368516
0.366539
0.364662
0.36288
0.361187
0.359577
0.358046
0.356588
0.355201
0.353879
0.352619
0.351417
0.35027
0.349175
0.34813
0.347145
0.372797
0.370597
0.36851
0.36653
0.36465
0.362865
0.361168
0.359556
0.358022
0.356562
0.355173
0.353849
0.352588
0.351386
0.35024
0.349147
0.348105
0.347124
0.372796
0.370594
0.368505
0.366523
0.364641
0.362854
0.361155
0.35954
0.358004
0.356542
0.35515
0.353825
0.352562
0.351358
0.35021
0.349115
0.348072
0.347089
0.372795
0.370592
0.368502
0.366518
0.364635
0.362846
0.361146
0.359529
0.357991
0.356527
0.355133
0.353805
0.35254
0.351334
0.350185
0.349088
0.348043
0.347058
0.372794
0.370591
0.3685
0.366515
0.364631
0.362841
0.361139
0.359521
0.357981
0.356516
0.355121
0.353792
0.352525
0.351317
0.350166
0.349068
0.348021
0.347035
0.372794
0.37059
0.368499
0.366514
0.364629
0.362838
0.361136
0.359517
0.357977
0.356511
0.355114
0.353784
0.352517
0.351308
0.350156
0.349056
0.348009
0.347022
0.372794
0.37059
0.3685
0.366515
0.36463
0.362839
0.361136
0.359517
0.357977
0.35651
0.355114
0.353783
0.352515
0.351307
0.350154
0.349054
0.348006
0.347019
0.372795
0.370591
0.368501
0.366517
0.364632
0.362842
0.36114
0.359521
0.357981
0.356515
0.355119
0.353789
0.352522
0.351313
0.350161
0.349061
0.348014
0.347027
0.372795
0.370593
0.368504
0.36652
0.364637
0.362848
0.361148
0.359531
0.357993
0.356529
0.355135
0.353807
0.352541
0.351334
0.350182
0.349083
0.348036
0.347049
0.372797
0.370596
0.368509
0.36653
0.364652
0.362869
0.361175
0.359565
0.358034
0.356576
0.355187
0.353863
0.352599
0.351393
0.35024
0.349139
0.348086
0.347093
0.3728
0.370606
0.368532
0.36657
0.364713
0.362953
0.361282
0.359692
0.358177
0.35673
0.355346
0.354021
0.35275
0.351529
0.350356
0.349229
0.348146
0.347118
0.372815
0.370662
0.368649
0.366761
0.36498
0.363289
0.361672
0.360118
0.358617
0.357163
0.355751
0.35438
0.353046
0.351748
0.350487
0.349261
0.348072
0.346932
0.372911
0.370959
0.369194
0.367544
0.365953
0.364384
0.362817
0.361246
0.359669
0.358089
0.356513
0.354945
0.353391
0.351856
0.350345
0.348861
0.347409
0.346007
0.373469
0.372366
0.371364
0.370237
0.368904
0.367357
0.365627
0.363755
0.361779
0.359734
0.357646
0.35554
0.353433
0.35134
0.349272
0.347238
0.345246
0.343317
0.376461
0.378228
0.378834
0.378173
0.37655
0.374272
0.371563
0.368577
0.365422
0.362172
0.358881
0.355588
0.352324
0.349109
0.345961
0.342892
0.339912
0.337043
0.392606
0.401341
0.402165
0.399516
0.395305
0.390342
0.385014
0.379525
0.373995
0.368504
0.363108
0.357848
0.352757
0.347856
0.343161
0.338679
0.334413
0.330373
0.438298
0.449783
0.450807
0.449577
0.447828
0.44585
0.443727
0.441504
0.439219
0.436909
0.434612
0.432364
0.430197
0.428134
0.426192
0.424376
0.422673
0.421025
0.544749
0.705345
0.836387
0.946126
1.04199
1.12366
1.19167
1.24712
1.29142
1.32607
1.35254
1.37218
1.38619
1.3956
1.40131
1.40405
1.40446
1.40298
0.00550547
0.00868674
0.0109405
0.0128524
0.0148165
0.0168463
0.0193488
0.0221482
0.0252128
0.0284835
0.0319024
0.0354314
0.0390471
0.0427347
0.0464842
0.0502889
0.0541442
0.0580474
0.061997
0.0659927
0.0700351
0.0741258
0.0782671
0.0824617
0.0867133
0.091026
0.0954046
0.0998548
0.104383
0.108997
0.113705
0.118519
0.123452
0.128521
0.133748
0.13916
0.144793
0.150643
0.156642
0.162789
0.16909
0.175547
0.182164
0.188946
0.195894
0.203011
0.210301
0.217764
0.225403
0.233219
0.241214
0.249387
0.257741
0.266274
0.274987
0.283878
0.292948
0.302193
0.311614
0.321207
0.33097
0.340901
0.350994
0.361247
0.371656
0.382215
0.39292
0.403764
0.414743
0.425848
0.437074
0.448412
0.459856
0.471396
0.483024
0.49473
0.506505
0.518339
0.530221
0.542139
0.554083
0.56604
0.577998
0.589943
0.601862
0.613741
0.625566
0.637321
0.648992
0.660562
0.672016
0.683339
0.694513
0.705525
0.71636
0.727005
0.737449
0.747685
0.757711
0.767532
0.777165
0.786646
0.796014
0.805076
0.813835
0.82229
0.830442
0.838287
0.845825
0.853052
0.859968
0.866572
0.872862
0.878839
0.884502
0.88985
0.894883
0.899604
0.904011
0.908107
0.911893
0.915371
0.91854
0.921404
0.923963
0.926218
0.92817
0.929821
0.93117
0.932218
0.932967
0.933414
0.93356
0.933403
0.93294
0.932167
0.931081
0.929676
0.927945
0.925879
0.923467
0.920699
0.917559
0.914031
0.910097
0.905732
0.90092
0.895631
0.889838
0.883514
0.876627
0.869153
0.861064
0.852344
0.842887
0.832817
0.822558
0.812599
0.807253
0.802635
0.797615
0.792056
0.785942
0.77928
0.772096
0.764425
0.756306
0.747786
0.73891
0.729726
0.720276
0.710594
0.700703
0.690603
0.680254
0.669528
0.658165
0.645392
0.629714
0.608975
0.0119932
0.0204743
0.0277106
0.0334624
0.0383615
0.0430148
0.0477633
0.0527655
0.0580401
0.0635506
0.0692569
0.0751304
0.0811535
0.0873155
0.0936099
0.100033
0.106581
0.113255
0.120054
0.12698
0.134034
0.141221
0.148545
0.156011
0.163625
0.171393
0.179323
0.187421
0.195697
0.204159
0.212817
0.221679
0.230756
0.240058
0.249594
0.259374
0.269403
0.279688
0.290231
0.301043
0.312131
0.323504
0.33517
0.347137
0.35941
0.371997
0.384903
0.398134
0.411693
0.425587
0.439817
0.454389
0.469304
0.484565
0.500173
0.51613
0.532435
0.549088
0.566088
0.583433
0.601122
0.61915
0.637514
0.65621
0.675231
0.694571
0.714223
0.734179
0.754431
0.774969
0.795782
0.816859
0.838189
0.859757
0.881551
0.903555
0.925754
0.948133
0.970674
0.993359
1.01617
1.03909
1.06209
1.08516
1.10827
1.1314
1.15452
1.17762
1.20066
1.22362
1.24647
1.26919
1.29173
1.31409
1.33622
1.3581
1.3797
1.401
1.42198
1.44261
1.46289
1.48281
1.50213
1.52095
1.53928
1.55714
1.5745
1.59138
1.60776
1.62364
1.63902
1.6539
1.66827
1.68213
1.69549
1.70835
1.7207
1.73255
1.7439
1.75476
1.76514
1.77503
1.78445
1.7934
1.80188
1.8099
1.81747
1.82459
1.83126
1.83748
1.84327
1.84862
1.85353
1.858
1.86203
1.8656
1.86871
1.87134
1.87348
1.87511
1.87619
1.8767
1.8766
1.87584
1.87438
1.87216
1.86912
1.86518
1.86028
1.85433
1.84725
1.83895
1.82933
1.81831
1.80572
1.79147
1.77618
1.75948
1.74236
1.72423
1.70493
1.68445
1.66287
1.64025
1.61668
1.59225
1.56709
1.5413
1.51501
1.48834
1.4614
1.43429
1.40712
1.37996
1.35284
1.32578
1.2987
1.27141
1.24332
1.2115
0.0177633
0.0337185
0.0439703
0.0516371
0.0583366
0.0647315
0.071169
0.0778194
0.0847357
0.091911
0.0993187
0.106932
0.114733
0.122706
0.130846
0.139147
0.147607
0.156227
0.165009
0.173954
0.183068
0.192355
0.201822
0.211476
0.221323
0.231373
0.241635
0.252117
0.26283
0.273785
0.284991
0.29646
0.308201
0.320227
0.332546
0.345168
0.358103
0.37136
0.384948
0.398879
0.413161
0.427807
0.442825
0.458224
0.474012
0.490198
0.50679
0.523792
0.541213
0.559057
0.57733
0.596035
0.615177
0.634757
0.654779
0.675244
0.696152
0.717503
0.739295
0.761528
0.784197
0.8073
0.830831
0.854784
0.879152
0.903928
0.929103
0.954666
0.980606
1.00691
1.03357
1.06056
1.08788
1.11549
1.1434
1.17157
1.19999
1.22864
1.25749
1.28653
1.31572
1.34504
1.37447
1.40398
1.43354
1.46313
1.49271
1.52225
1.55171
1.58108
1.61031
1.63937
1.66821
1.69682
1.72514
1.75314
1.78079
1.80806
1.8349
1.8613
1.88723
1.91257
1.93724
1.96127
1.98465
2.00739
2.02948
2.0509
2.07166
2.09175
2.11115
2.12987
2.1479
2.16524
2.18188
2.19784
2.21311
2.22769
2.24159
2.25481
2.26736
2.27925
2.29048
2.30107
2.31102
2.32034
2.32904
2.33713
2.34462
2.35151
2.35781
2.36354
2.36868
2.37325
2.37725
2.38066
2.38348
2.3857
2.38731
2.38828
2.38858
2.38818
2.38704
2.3851
2.38231
2.37859
2.37388
2.36808
2.3611
2.35284
2.34317
2.33198
2.31914
2.30452
2.28818
2.27008
2.25051
2.22942
2.20708
2.18327
2.15797
2.13124
2.10315
2.07381
2.04333
2.01185
1.97951
1.94645
1.91284
1.87881
1.84454
1.81014
1.77577
1.74154
1.70755
1.6739
1.64066
1.60795
1.57573
1.54376
0.0228135
0.045635
0.0585954
0.0681738
0.0764357
0.0842028
0.0918921
0.0997198
0.107783
0.116109
0.124692
0.133514
0.142558
0.151808
0.161254
0.17089
0.180715
0.190727
0.200929
0.211324
0.221917
0.232716
0.243726
0.254956
0.266414
0.278111
0.290057
0.302262
0.314736
0.327492
0.340541
0.353894
0.367563
0.38156
0.395896
0.410583
0.425631
0.441052
0.456858
0.47306
0.48967
0.5067
0.524161
0.542062
0.560415
0.579228
0.59851
0.61827
0.638515
0.659252
0.680487
0.702226
0.724474
0.747234
0.77051
0.794304
0.818618
0.843451
0.868803
0.894674
0.921059
0.947955
0.975357
1.00326
1.03165
1.06053
1.08989
1.1197
1.14997
1.18067
1.21179
1.24332
1.27523
1.3075
1.34013
1.37307
1.40631
1.43983
1.47359
1.50758
1.54176
1.5761
1.61058
1.64515
1.67979
1.71447
1.74915
1.78379
1.81835
1.8528
1.8871
1.92121
1.95507
1.98866
2.02193
2.05482
2.08731
2.11933
2.15086
2.18185
2.21226
2.24191
2.2708
2.29891
2.32624
2.35277
2.37849
2.40339
2.42746
2.45069
2.47306
2.49457
2.51522
2.535
2.5539
2.57193
2.58909
2.60538
2.6208
2.63536
2.64908
2.66194
2.67398
2.6852
2.69561
2.70523
2.71406
2.72213
2.72945
2.73602
2.74187
2.747
2.75144
2.75518
2.75823
2.7606
2.76227
2.76326
2.76356
2.76313
2.76196
2.76001
2.75726
2.75363
2.74908
2.74353
2.7369
2.72908
2.71997
2.70944
2.69737
2.68358
2.66811
2.65083
2.63176
2.61086
2.58829
2.56403
2.53815
2.51054
2.48125
2.45034
2.41792
2.38412
2.34907
2.31291
2.27581
2.23793
2.19946
2.16058
2.12145
2.08225
2.04316
2.00432
1.96589
1.92806
1.891
1.85501
1.82031
1.78765
0.0292881
0.056199
0.0716563
0.0829995
0.0926689
0.101624
0.110351
0.119114
0.128052
0.137229
0.146665
0.156359
0.1663
0.176476
0.186878
0.197498
0.208334
0.219385
0.230653
0.242142
0.253856
0.265803
0.277989
0.290425
0.30312
0.316083
0.329325
0.342858
0.356694
0.370843
0.38532
0.400135
0.415303
0.430834
0.446743
0.463042
0.479744
0.496861
0.514407
0.532396
0.550839
0.569751
0.589143
0.609027
0.629417
0.650321
0.671752
0.693719
0.716232
0.739299
0.762929
0.787128
0.811903
0.83726
0.863203
0.889736
0.916863
0.944584
0.972901
1.00181
1.03132
1.06141
1.09209
1.12335
1.15518
1.18758
1.22053
1.25402
1.28804
1.32257
1.3576
1.39311
1.42908
1.46547
1.50229
1.53949
1.57704
1.61493
1.65313
1.69159
1.73029
1.76919
1.80827
1.84747
1.88678
1.92613
1.96551
2.00486
2.04414
2.08331
2.12232
2.16112
2.19967
2.23792
2.2758
2.31327
2.35028
2.38676
2.42267
2.45795
2.4925
2.52617
2.55894
2.59081
2.62175
2.65173
2.68075
2.70878
2.7358
2.76181
2.78678
2.8107
2.83357
2.85538
2.87613
2.89581
2.91441
2.93195
2.94843
2.96385
2.97823
2.99156
3.00388
3.01519
3.02551
3.03487
3.04327
3.05073
3.05728
3.06294
3.06773
3.07167
3.07478
3.07709
3.0786
3.07933
3.07929
3.07848
3.07692
3.07458
3.07145
3.06752
3.06274
3.05707
3.05046
3.04282
3.03407
3.02412
3.01283
3.00006
2.98579
2.96987
2.95226
2.93288
2.91168
2.88865
2.86382
2.83719
2.80873
2.77839
2.74623
2.71232
2.67678
2.63973
2.60134
2.56175
2.52114
2.47971
2.43764
2.39512
2.35237
2.30958
2.26695
2.22467
2.18294
2.14201
2.10214
2.0637
2.027
1.99286
0.0355083
0.0654365
0.0830672
0.095986
0.106921
0.116938
0.126575
0.136136
0.145794
0.155645
0.165734
0.176079
0.186684
0.197542
0.208649
0.22
0.231591
0.243423
0.255497
0.267817
0.280388
0.293217
0.306312
0.319682
0.333336
0.347286
0.361542
0.376117
0.391022
0.40627
0.421874
0.437847
0.454203
0.470956
0.48812
0.505708
0.523735
0.542216
0.561165
0.580598
0.600528
0.62097
0.64194
0.663449
0.685514
0.708146
0.731358
0.755163
0.779573
0.804597
0.830247
0.856532
0.883461
0.911041
0.939279
0.968181
0.997752
1.028
1.05891
1.09051
1.12278
1.15572
1.18933
1.22361
1.25855
1.29414
1.33037
1.36723
1.40471
1.44278
1.48144
1.52066
1.56041
1.60069
1.64145
1.68267
1.72433
1.76639
1.80881
1.85157
1.89462
1.93793
1.98145
2.02515
2.06898
2.11289
2.15685
2.20081
2.24471
2.28851
2.33215
2.37559
2.41875
2.46159
2.50404
2.54603
2.58751
2.6284
2.66863
2.70816
2.74674
2.78434
2.82092
2.85644
2.89089
2.92421
2.9564
2.98743
3.01726
3.04589
3.07329
3.09944
3.12434
3.14798
3.17034
3.19141
3.21121
3.22972
3.24696
3.26292
3.27763
3.29108
3.30331
3.31433
3.32415
3.33281
3.34033
3.34674
3.35206
3.35632
3.35955
3.36179
3.36307
3.36342
3.36287
3.36145
3.35917
3.35607
3.35216
3.34744
3.34191
3.33557
3.32838
3.32033
3.31134
3.30137
3.29031
3.27809
3.26464
3.24983
3.2336
3.21584
3.19646
3.1754
3.15257
3.12793
3.10146
3.07311
3.04284
3.0106
2.97643
2.94042
2.90267
2.86332
2.82252
2.78043
2.73725
2.69316
2.64838
2.60312
2.5576
2.51204
2.46668
2.42173
2.37744
2.33409
2.292
2.25155
2.21303
2.17705
0.0411968
0.0733453
0.0928271
0.107118
0.119168
0.130126
0.140571
0.150832
0.161106
0.171515
0.182125
0.192974
0.204078
0.215444
0.227071
0.238959
0.251108
0.263519
0.276193
0.289135
0.302351
0.315848
0.329633
0.343717
0.358108
0.372818
0.387859
0.403242
0.41898
0.435087
0.451575
0.46846
0.485756
0.503478
0.52164
0.540259
0.55935
0.57893
0.599015
0.619621
0.640764
0.662463
0.684732
0.707589
0.731049
0.755128
0.779841
0.805203
0.831228
0.85793
0.885321
0.913414
0.94222
0.97175
1.00201
1.03302
1.06477
1.09727
1.13054
1.16457
1.19936
1.23491
1.27123
1.30831
1.34614
1.38471
1.42403
1.46406
1.50481
1.54626
1.58838
1.63116
1.67457
1.71858
1.76318
1.80832
1.85398
1.90012
1.94669
1.99367
2.04101
2.08867
2.1366
2.18476
2.23309
2.28155
2.33009
2.37864
2.42717
2.47561
2.52389
2.57197
2.61977
2.66723
2.71426
2.76081
2.80678
2.8521
2.89669
2.94041
2.98305
3.02457
3.06494
3.1041
3.14202
3.17865
3.21396
3.24792
3.2805
3.31168
3.34141
3.3697
3.39651
3.42183
3.44565
3.46796
3.48876
3.50805
3.52582
3.54209
3.55687
3.57017
3.58201
3.59242
3.60141
3.60903
3.6153
3.62026
3.62394
3.62638
3.62762
3.62771
3.6267
3.62463
3.62155
3.6175
3.61251
3.60664
3.59991
3.59236
3.58399
3.57482
3.56485
3.55405
3.54236
3.52983
3.51634
3.50183
3.48625
3.46949
3.45147
3.43209
3.41126
3.38887
3.36483
3.33906
3.31148
3.28202
3.25061
3.21719
3.18179
3.14447
3.10533
3.06449
3.0221
2.97833
2.93336
2.8874
2.84067
2.7934
2.74582
2.69818
2.65072
2.60371
2.55743
2.51218
2.46829
2.42614
2.38595
2.34814
0.0462726
0.079994
0.101018
0.116474
0.129479
0.141252
0.152399
0.163267
0.174072
0.184948
0.195982
0.207225
0.218709
0.230448
0.242452
0.254726
0.267274
0.280098
0.293203
0.306594
0.320277
0.334261
0.348552
0.363161
0.378098
0.393375
0.409003
0.424995
0.441364
0.458125
0.47529
0.492877
0.5109
0.529375
0.548319
0.567749
0.587683
0.608138
0.629133
0.650686
0.672816
0.695541
0.718882
0.742856
0.767482
0.792778
0.818763
0.845454
0.872869
0.901023
0.929934
0.959616
0.990083
1.02135
1.05343
1.08633
1.12006
1.15463
1.19006
1.22633
1.26347
1.30146
1.34032
1.38003
1.4206
1.46202
1.50428
1.54737
1.59128
1.63599
1.68147
1.72772
1.7747
1.82238
1.87075
1.91975
1.96936
2.01954
2.07025
2.12143
2.17305
2.22505
2.27739
2.33
2.38285
2.43587
2.489
2.54218
2.59536
2.64846
2.70143
2.75418
2.80665
2.85875
2.91041
2.96154
3.01205
3.06183
3.1108
3.15866
3.20535
3.25079
3.29492
3.33769
3.37906
3.41897
3.45737
3.49422
3.52949
3.56315
3.59515
3.62548
3.6541
3.68101
3.70617
3.72959
3.75125
3.77114
3.78927
3.80565
3.82028
3.83319
3.8444
3.85393
3.86182
3.86809
3.87279
3.87596
3.87765
3.8779
3.87676
3.87431
3.87059
3.86568
3.85963
3.8525
3.84436
3.83526
3.82528
3.81445
3.80282
3.79038
3.77725
3.76341
3.74881
3.73351
3.71744
3.70057
3.68283
3.66416
3.64447
3.62365
3.60159
3.57818
3.5533
3.52681
3.49863
3.46862
3.43669
3.40277
3.36685
3.32896
3.28918
3.24762
3.20441
3.15971
3.1137
3.0666
3.01862
2.97001
2.92102
2.8719
2.82294
2.77441
2.72662
2.6799
2.63457
2.59098
2.5493
2.50982
0.0507153
0.0854666
0.107748
0.124167
0.137968
0.150424
0.162163
0.173544
0.184793
0.196055
0.207428
0.218976
0.23074
0.242747
0.255013
0.267549
0.280364
0.293464
0.306856
0.320548
0.334545
0.348858
0.363494
0.378465
0.393782
0.409455
0.425498
0.441923
0.458746
0.475979
0.49364
0.511744
0.530308
0.549349
0.568886
0.588937
0.609521
0.630659
0.652371
0.674677
0.697599
0.721159
0.745377
0.770275
0.795876
0.822199
0.849268
0.877102
0.905722
0.935148
0.965399
0.996494
1.02845
1.06129
1.09502
1.12965
1.16521
1.20171
1.23914
1.27753
1.31688
1.35719
1.39847
1.44071
1.48392
1.52808
1.5732
1.61926
1.66624
1.71414
1.76293
1.81259
1.8631
1.91441
1.96651
2.01935
2.0729
2.1271
2.18192
2.2373
2.2932
2.34955
2.4063
2.46339
2.52076
2.57835
2.63609
2.69391
2.75175
2.80953
2.86717
2.92461
2.98175
3.03851
3.09479
3.15049
3.20552
3.25975
3.31297
3.36495
3.41563
3.46492
3.51277
3.5591
3.60385
3.64696
3.68838
3.72806
3.76595
3.802
3.83618
3.86845
3.89879
3.92716
3.95355
3.97793
4.0003
4.02065
4.03897
4.05528
4.06958
4.0819
4.09225
4.10068
4.1072
4.11187
4.11473
4.11582
4.1152
4.11293
4.10908
4.10372
4.09693
4.08878
4.07937
4.06878
4.05707
4.04432
4.03065
4.01616
4.00089
3.9849
3.96829
3.95109
3.93333
3.91505
3.89623
3.87686
3.85691
3.83632
3.815
3.79285
3.76975
3.74556
3.72014
3.69333
3.66497
3.63494
3.60307
3.56928
3.53351
3.49576
3.45608
3.41453
3.37124
3.32634
3.28002
3.23248
3.18394
3.13465
3.08486
3.03487
2.98495
2.93541
2.88658
2.83878
2.79235
2.7476
2.70463
2.6637
0.0545257
0.089848
0.113127
0.130323
0.144766
0.157774
0.169991
0.181786
0.193389
0.204954
0.216586
0.228356
0.240316
0.252498
0.264927
0.277621
0.290591
0.30385
0.317406
0.331268
0.345447
0.359952
0.374792
0.389981
0.405528
0.421447
0.437752
0.454456
0.471575
0.489123
0.507119
0.525578
0.54452
0.563964
0.583929
0.604436
0.625507
0.647163
0.669428
0.692324
0.715876
0.740108
0.765044
0.790709
0.817128
0.844326
0.872327
0.901156
0.930837
0.961394
0.99285
1.02523
1.05855
1.09283
1.12809
1.16436
1.20164
1.23995
1.2793
1.31971
1.36119
1.40373
1.44736
1.49206
1.53784
1.5847
1.63262
1.6816
1.73163
1.78268
1.83474
1.88779
1.9418
1.99673
2.05255
2.10921
2.16668
2.22491
2.28384
2.34342
2.40359
2.46429
2.52545
2.587
2.64888
2.71103
2.77335
2.83579
2.89825
2.96067
3.02295
3.08502
3.14677
3.20812
3.26894
3.32914
3.38859
3.44712
3.50442
3.56038
3.61491
3.66793
3.71935
3.7691
3.81711
3.8633
3.9076
3.94997
3.99033
4.02865
4.06486
4.09894
4.13084
4.16054
4.188
4.2132
4.23612
4.25675
4.27509
4.29115
4.30493
4.31646
4.32576
4.33286
4.3378
4.34063
4.34139
4.34014
4.33695
4.33188
4.32503
4.31646
4.30626
4.29455
4.28144
4.26703
4.25142
4.23472
4.21706
4.19857
4.17935
4.15948
4.1391
4.11828
4.0971
4.07561
4.05385
4.03184
4.00956
3.98698
3.96402
3.94059
3.91656
3.89177
3.86607
3.83925
3.81114
3.78154
3.75028
3.7172
3.68222
3.64529
3.6064
3.56559
3.52295
3.47859
3.43267
3.38539
3.33696
3.28764
3.23769
3.1874
3.13708
3.08704
3.03761
2.98914
2.94195
2.89632
2.85233
2.81021
0.0577146
0.0932205
0.117263
0.135064
0.150004
0.163435
0.176017
0.188124
0.19999
0.211773
0.223583
0.235497
0.247571
0.259846
0.272351
0.285109
0.298138
0.311451
0.325063
0.338985
0.353227
0.367803
0.382724
0.398002
0.413651
0.429684
0.446116
0.462963
0.48024
0.497965
0.516156
0.534833
0.554014
0.573721
0.593977
0.614803
0.636223
0.658263
0.680948
0.704303
0.728357
0.753135
0.778666
0.804979
0.832101
0.860061
0.888887
0.918608
0.949252
0.980847
1.01342
1.04699
1.0816
1.11726
1.15399
1.19182
1.23077
1.27085
1.31208
1.35447
1.39804
1.4428
1.48875
1.53589
1.58423
1.63376
1.68448
1.73638
1.78945
1.84366
1.899
1.95543
2.01294
2.07148
2.13102
2.19152
2.25291
2.31516
2.3782
2.44196
2.50638
2.57139
2.63692
2.7029
2.76924
2.83587
2.90271
2.96967
3.03667
3.10361
3.17041
3.23696
3.30317
3.36893
3.43412
3.49861
3.56227
3.62472
3.68585
3.74554
3.80368
3.86018
3.91494
3.96787
4.01889
4.06792
4.11489
4.15972
4.20234
4.2427
4.28074
4.31642
4.34968
4.38049
4.40883
4.43465
4.45791
4.47863
4.49678
4.51238
4.52543
4.53597
4.544
4.54957
4.55271
4.55348
4.55191
4.54809
4.54209
4.534
4.52389
4.51187
4.49805
4.48255
4.4655
4.44703
4.42727
4.40636
4.38446
4.36171
4.33827
4.31427
4.28987
4.26518
4.24033
4.21542
4.19052
4.16569
4.14094
4.11627
4.09162
4.0669
4.04199
4.01674
3.99094
3.96439
3.93686
3.90812
3.87794
3.84614
3.81256
3.77708
3.73967
3.7003
3.65903
3.61593
3.57113
3.52482
3.4772
3.42851
3.37903
3.32904
3.27887
3.22883
3.17928
3.13056
3.08296
3.03678
2.99205
2.94904
0.0603016
0.0956642
0.120256
0.138505
0.153807
0.16754
0.180376
0.192693
0.204729
0.216643
0.228549
0.240528
0.252639
0.264927
0.277428
0.290167
0.303167
0.316445
0.330018
0.3439
0.358105
0.372646
0.387539
0.402797
0.418435
0.434468
0.450913
0.467787
0.485107
0.502894
0.521166
0.539946
0.559255
0.579116
0.599553
0.620593
0.642262
0.664587
0.687597
0.71132
0.735789
0.761032
0.787083
0.813972
0.841731
0.870395
0.899994
0.930561
0.962128
0.994727
1.02839
1.06314
1.09902
1.13605
1.17426
1.21366
1.25429
1.29616
1.33929
1.3837
1.4294
1.4764
1.52472
1.57434
1.62529
1.67755
1.73111
1.78597
1.84212
1.89952
1.95817
2.01802
2.07906
2.14123
2.20451
2.26883
2.33414
2.4004
2.46751
2.53542
2.60404
2.6733
2.74312
2.81341
2.8841
2.95508
3.02627
3.09758
3.16891
3.24015
3.31122
3.382
3.45237
3.52223
3.59144
3.65986
3.72714
3.79313
3.85771
3.92074
3.9821
4.04169
4.0994
4.15515
4.20882
4.26034
4.30961
4.35656
4.40111
4.44319
4.48274
4.5197
4.55402
4.58566
4.6146
4.64076
4.66411
4.68464
4.70236
4.71726
4.72935
4.73866
4.74521
4.74902
4.75016
4.74865
4.74458
4.73802
4.72904
4.71774
4.70421
4.68859
4.67098
4.65153
4.63037
4.60768
4.5836
4.5583
4.53198
4.5048
4.47696
4.44864
4.42002
4.39127
4.36256
4.33403
4.3058
4.27797
4.2506
4.22371
4.19727
4.17122
4.14545
4.11979
4.09404
4.06797
4.04131
4.01379
3.98515
3.95513
3.9235
3.89011
3.85484
3.81761
3.77841
3.73729
3.69434
3.64971
3.6036
3.55622
3.50785
3.45878
3.40933
3.35984
3.31065
3.2621
3.21451
3.16812
3.12299
3.07942
0.0623148
0.0972568
0.122204
0.140754
0.156293
0.170213
0.183195
0.195623
0.207736
0.219695
0.231615
0.24358
0.255652
0.26788
0.2803
0.292945
0.305838
0.319
0.332451
0.346209
0.360289
0.374708
0.389482
0.404628
0.420163
0.436104
0.45247
0.46928
0.486555
0.504316
0.522586
0.541388
0.560746
0.580688
0.601241
0.622432
0.644292
0.666851
0.690141
0.714197
0.739051
0.764738
0.791295
0.818756
0.847158
0.876537
0.906931
0.938375
0.970906
1.00456
1.03937
1.07538
1.11261
1.15109
1.19086
1.23195
1.27437
1.31814
1.36329
1.40984
1.45779
1.50716
1.55797
1.6102
1.66387
1.71897
1.77548
1.83341
1.89272
1.95341
2.01543
2.07876
2.14337
2.2092
2.27621
2.34435
2.41357
2.48379
2.55493
2.62689
2.69959
2.77296
2.8469
2.92131
2.99611
3.0712
3.14646
3.22181
3.29712
3.37229
3.44721
3.52177
3.59583
3.66928
3.74195
3.8135
3.88381
3.95275
4.02024
4.08605
4.15007
4.21219
4.2723
4.33031
4.38612
4.43961
4.49069
4.53928
4.58529
4.62863
4.66925
4.70707
4.74204
4.7741
4.80323
4.82935
4.85245
4.87249
4.88948
4.90341
4.91429
4.92214
4.92697
4.92883
4.92776
4.92383
4.91709
4.90763
4.89553
4.8809
4.86385
4.8445
4.823
4.79951
4.77417
4.74716
4.71868
4.68891
4.65807
4.62637
4.59403
4.56127
4.52832
4.49538
4.46267
4.43039
4.39869
4.36772
4.33758
4.30835
4.28003
4.25258
4.22592
4.19989
4.17428
4.14885
4.1233
4.09733
4.07061
4.04283
4.0137
3.98298
3.95048
3.91607
3.87966
3.84124
3.80087
3.75865
3.71475
3.66938
3.62279
3.57528
3.52715
3.47876
3.43044
3.38254
3.33537
3.28917
3.24401
3.20023
0.0637943
0.098076
0.123196
0.141913
0.15757
0.171569
0.184597
0.197039
0.209138
0.221057
0.232911
0.244786
0.256747
0.268843
0.281115
0.293596
0.306314
0.319292
0.332553
0.346117
0.360002
0.374229
0.388816
0.403781
0.419146
0.434931
0.451156
0.467845
0.485021
0.502708
0.520932
0.53972
0.559101
0.579105
0.59976
0.621101
0.64316
0.665972
0.689573
0.714002
0.739295
0.765493
0.792635
0.820761
0.849912
0.880128
0.91145
0.943918
0.977572
1.01245
1.0486
1.08605
1.12483
1.16499
1.20656
1.24957
1.29402
1.33994
1.38736
1.43628
1.48673
1.53871
1.59224
1.6473
1.7039
1.76204
1.82169
1.88284
1.94547
2.00955
2.07505
2.14193
2.21014
2.27964
2.35037
2.42228
2.49531
2.56941
2.64443
2.72026
2.79682
2.87403
2.95178
3.02998
3.10851
3.18726
3.26613
3.34499
3.42373
3.50222
3.58035
3.65799
3.73501
3.8112
3.88628
3.96014
4.03267
4.10375
4.17325
4.24101
4.30689
4.37079
4.43259
4.49216
4.54939
4.60418
4.65643
4.70603
4.75289
4.79693
4.83806
4.87621
4.91133
4.94334
4.97221
4.99789
5.02033
5.03952
5.05543
5.06806
5.07743
5.08353
5.0864
5.08608
5.08261
5.07607
5.0665
5.05401
5.03868
5.02062
4.99996
4.97684
4.95141
4.92384
4.89429
4.86297
4.83009
4.79586
4.76051
4.72429
4.68745
4.65024
4.61294
4.57578
4.53903
4.50292
4.46767
4.43348
4.4005
4.36883
4.33855
4.30966
4.28208
4.25569
4.23029
4.20563
4.1814
4.15724
4.1328
4.10768
4.08154
4.05406
4.02495
3.99401
3.96109
3.9261
3.88904
3.84997
3.80901
3.76636
3.72225
3.67695
3.63077
3.58406
3.53716
3.49041
3.44412
3.39854
3.35375
3.31014
0.0647985
0.0982041
0.123326
0.142079
0.157743
0.171719
0.184695
0.197061
0.209062
0.22086
0.232573
0.244287
0.256069
0.267971
0.280034
0.292293
0.30478
0.31752
0.33054
0.343861
0.357506
0.371497
0.385857
0.400607
0.415773
0.431377
0.447444
0.464003
0.481079
0.498702
0.516902
0.535711
0.555163
0.575291
0.596128
0.617712
0.64008
0.663274
0.687333
0.712301
0.738221
0.765137
0.793092
0.822131
0.852298
0.883639
0.916197
0.950016
0.985137
1.0216
1.05946
1.09873
1.13948
1.18172
1.22551
1.27088
1.3178
1.36629
1.41639
1.4681
1.52143
1.5764
1.633
1.69123
1.75108
1.81252
1.87555
1.94014
2.00626
2.07386
2.14292
2.21338
2.2852
2.3583
2.43264
2.50814
2.58473
2.66232
2.74082
2.82009
2.90006
2.9806
3.06161
3.14297
3.22457
3.30628
3.38797
3.46952
3.5508
3.63168
3.71202
3.79169
3.87042
3.94805
4.0245
4.09965
4.17338
4.24559
4.31612
4.38486
4.45166
4.5164
4.57894
4.63917
4.69697
4.75223
4.80482
4.85465
4.90161
4.94562
4.98659
5.02443
5.05907
5.09046
5.11853
5.14325
5.16455
5.18243
5.19685
5.2078
5.2153
5.21935
5.21998
5.21723
5.21115
5.2018
5.18926
5.1736
5.15495
5.1334
5.1091
5.08219
5.05284
5.02122
4.98753
4.95196
4.91476
4.87616
4.83642
4.79579
4.75456
4.71301
4.67145
4.63016
4.58943
4.54955
4.51079
4.47339
4.43756
4.40345
4.3712
4.34083
4.31234
4.28562
4.2605
4.23673
4.21398
4.19189
4.17003
4.14797
4.12528
4.10156
4.07645
4.04963
4.02088
3.99004
3.95703
3.92185
3.88459
3.84539
3.80446
3.76206
3.7185
3.67409
3.62918
3.58412
3.5392
3.49471
3.45072
3.4077
0.0654168
0.0977341
0.12269
0.141354
0.156918
0.170774
0.183609
0.195816
0.207639
0.219244
0.230749
0.242241
0.253788
0.265444
0.277252
0.28925
0.30147
0.313943
0.326698
0.339761
0.353158
0.366915
0.381056
0.395611
0.410607
0.426075
0.442043
0.458545
0.475613
0.493282
0.511589
0.530572
0.550275
0.570743
0.592
0.614089
0.637059
0.660956
0.685827
0.711721
0.738687
0.766771
0.796023
0.826491
0.858223
0.891263
0.925658
0.961452
0.998686
1.0374
1.07764
1.11943
1.16282
1.20782
1.25448
1.3028
1.35279
1.40446
1.45782
1.51288
1.56962
1.62805
1.68816
1.74994
1.81335
1.87839
1.945
2.01317
2.08285
2.15399
2.22654
2.30045
2.37565
2.45208
2.52966
2.60832
2.68797
2.76851
2.84984
2.93186
3.01443
3.09746
3.1808
3.26434
3.34795
3.43148
3.51481
3.59779
3.68027
3.76215
3.8432
3.9232
4.00212
4.07988
4.15638
4.23152
4.30519
4.37727
4.44764
4.51615
4.58268
4.6471
4.70927
4.76908
4.82639
4.88109
4.93306
4.98219
5.02837
5.07149
5.11148
5.14824
5.18169
5.21177
5.23841
5.26156
5.28118
5.29723
5.30968
5.31853
5.32377
5.32543
5.32351
5.31806
5.30914
5.2968
5.28113
5.26221
5.24016
5.21509
5.18715
5.15649
5.12329
5.08772
5.05001
5.01036
4.96902
4.92625
4.88232
4.83751
4.79212
4.74647
4.70088
4.65567
4.61118
4.56773
4.52562
4.48515
4.44659
4.41014
4.37599
4.34423
4.31489
4.28791
4.26316
4.24041
4.21932
4.19952
4.18054
4.1619
4.1431
4.12365
4.1031
4.08103
4.05714
4.03116
4.00294
3.97242
3.93961
3.90461
3.86761
3.82883
3.78855
3.74709
3.70479
3.66199
3.61899
3.57607
3.53337
3.49137
0.0657887
0.0967878
0.121411
0.139862
0.155223
0.168868
0.181481
0.193454
0.205032
0.216384
0.227629
0.238855
0.250132
0.261516
0.273052
0.284781
0.296738
0.308959
0.321479
0.334336
0.347557
0.361162
0.375189
0.389673
0.404651
0.420158
0.436235
0.45292
0.470254
0.488281
0.507046
0.526595
0.546976
0.568238
0.590427
0.613594
0.63779
0.663069
0.689483
0.717086
0.745928
0.776062
0.807538
0.840402
0.8747
0.910476
0.94777
0.986619
1.02706
1.06912
1.11283
1.15821
1.2053
1.25409
1.3046
1.35684
1.4108
1.46648
1.52386
1.58293
1.64368
1.70608
1.77011