/*--------------------------------*- C++ -*----------------------------------*\
| =========                 |                                                 |
| \\      /  F ield         | OpenFOAM: The Open Source CFD Toolbox           |
|  \\    /   O peration     | Version:  2.2.x                                 |
|   \\  /    A nd           | Web:      www.OpenFOAM.org                      |
|    \\/     M anipulation  |                                                 |
\*---------------------------------------------------------------------------*/
FoamFile
{
    version     2.0;
    format      ascii;
    class       volScalarField;
    location    "600";
    object      nut;
}
// * * * * * * * * * * * * * * * * * * * * * * * * * * * * * * * * * * * * * //

dimensions      [0 2 -1 0 0 0 0];

internalField   nonuniform List<scalar> 
12225
(
3.09428e-05
3.71944e-05
4.0947e-05
4.3145e-05
4.43825e-05
4.5024e-05
4.52964e-05
4.5342e-05
4.52506e-05
4.50787e-05
4.48619e-05
4.46225e-05
4.43747e-05
4.41269e-05
4.38846e-05
4.36507e-05
4.34232e-05
4.32223e-05
0.000116613
6.9368e-05
5.16051e-05
4.24148e-05
3.71539e-05
3.3921e-05
3.18289e-05
3.04302e-05
2.94808e-05
2.88383e-05
2.84146e-05
2.81524e-05
2.8013e-05
2.79691e-05
2.80007e-05
2.8092e-05
2.82289e-05
2.83718e-05
0.000365113
0.000223242
0.000162458
0.000127915
0.00010604
9.12451e-05
8.0704e-05
7.28791e-05
6.68812e-05
6.21655e-05
5.83819e-05
5.52964e-05
5.27472e-05
5.06187e-05
4.88246e-05
4.72945e-05
4.5958e-05
4.47887e-05
0.000644611
0.000479078
0.000378701
0.000313449
0.000268355
0.00023579
0.000211398
0.000192564
0.00017765
0.000165589
0.00015566
0.000147359
0.000140329
0.000134306
0.000129092
0.000124531
0.000120503
0.000116998
0.000789269
0.000696799
0.000611917
0.000542051
0.000486078
0.000441344
0.000405306
0.000375928
0.000351679
0.000331423
0.000314313
0.000299713
0.000287142
0.000276226
0.000266678
0.000258271
0.000250836
0.000244345
0.000836147
0.000802043
0.000758903
0.000713888
0.000670966
0.000631882
0.000597101
0.000566466
0.000539581
0.000515984
0.000495232
0.000476925
0.000460717
0.000446314
0.000433469
0.000421978
0.000411684
0.000402573
0.000848366
0.000838516
0.000822834
0.000802886
0.000780485
0.00075716
0.000733991
0.000711655
0.000690531
0.000670797
0.000652505
0.000635631
0.000620111
0.000605859
0.000592781
0.000580789
0.000569809
0.00055989
0.000850836
0.000847527
0.000841611
0.000833096
0.000822396
0.000810103
0.00079681
0.000783026
0.000769147
0.000755463
0.000742172
0.000729405
0.000717239
0.000705714
0.000694846
0.000684634
0.000675079
0.000666297
0.000851475
0.000850225
0.000848001
0.000844577
0.000839912
0.000834107
0.000827353
0.000819871
0.000811883
0.000803589
0.000795156
0.000786719
0.000778385
0.000770232
0.000762321
0.000754692
0.000747385
0.000740531
0.000851641
0.00085103
0.00085015
0.000848867
0.000847085
0.000844764
0.000841908
0.000838558
0.000834781
0.000830653
0.000826254
0.00082166
0.000816941
0.000812158
0.000807364
0.000802603
0.000797919
0.000793419
0.000851672
0.000851219
0.000850723
0.000850137
0.000849415
0.000848519
0.000847423
0.000846116
0.000844598
0.000842881
0.000840983
0.000838926
0.000836738
0.000834443
0.000832068
0.000829638
0.00082718
0.00082476
0.000851674
0.000851249
0.000850836
0.000850423
0.000849995
0.000849538
0.000849038
0.000848483
0.000847866
0.000847182
0.000846429
0.000845609
0.000844725
0.000843783
0.000842789
0.000841751
0.00084068
0.000839608
0.000851671
0.000851248
0.000850846
0.000850464
0.000850095
0.000849738
0.000849385
0.000849034
0.000848679
0.000848317
0.000847946
0.000847563
0.000847167
0.000846756
0.000846333
0.000845896
0.000845449
0.000845009
0.000851668
0.000851243
0.000850841
0.00085046
0.000850099
0.000849755
0.000849428
0.000849115
0.000848814
0.000848523
0.000848242
0.000847968
0.000847701
0.000847439
0.000847182
0.000846928
0.00084668
0.000846449
0.000851666
0.000851239
0.000850835
0.000850452
0.00085009
0.000849746
0.00084942
0.00084911
0.000848815
0.000848535
0.000848266
0.00084801
0.000847766
0.000847531
0.000847306
0.00084709
0.000846885
0.000846701
0.000851665
0.000851236
0.000850831
0.000850447
0.000850083
0.000849737
0.000849409
0.000849098
0.000848802
0.00084852
0.000848252
0.000847996
0.000847752
0.00084752
0.000847297
0.000847085
0.000846885
0.000846707
0.000851664
0.000851235
0.000850828
0.000850443
0.000850078
0.000849731
0.000849402
0.000849089
0.000848791
0.000848508
0.000848238
0.000847981
0.000847736
0.000847501
0.000847278
0.000847065
0.000846863
0.000846684
0.000851664
0.000851234
0.000850827
0.000850441
0.000850076
0.000849728
0.000849398
0.000849085
0.000848786
0.000848502
0.000848231
0.000847972
0.000847726
0.000847491
0.000847266
0.000847051
0.000846849
0.000846669
0.000851664
0.000851235
0.000850828
0.000850442
0.000850076
0.000849729
0.000849399
0.000849085
0.000848786
0.000848501
0.000848229
0.00084797
0.000847723
0.000847486
0.00084726
0.000847044
0.000846839
0.000846657
0.000851665
0.000851236
0.00085083
0.000850444
0.000850079
0.000849731
0.000849401
0.000849086
0.000848785
0.000848497
0.000848222
0.000847957
0.000847703
0.000847458
0.000847222
0.000846994
0.000846776
0.000846578
0.000851666
0.000851238
0.000850832
0.000850446
0.000850078
0.000849724
0.000849384
0.000849054
0.000848731
0.000848413
0.000848099
0.000847787
0.000847475
0.000847163
0.000846849
0.000846534
0.000846219
0.000845916
0.000851667
0.000851237
0.000850823
0.000850417
0.00085001
0.000849592
0.000849153
0.000848688
0.000848188
0.00084765
0.000847072
0.000846452
0.000845791
0.000845092
0.000844355
0.000843586
0.000842791
0.000841988
0.000851661
0.000851195
0.000850681
0.000850075
0.000849336
0.00084843
0.000847338
0.00084605
0.000844567
0.000842899
0.00084106
0.000839071
0.000836953
0.000834727
0.000832417
0.000830043
0.000827627
0.000825213
0.00085157
0.000850737
0.000849405
0.000847416
0.000844692
0.000841228
0.000837081
0.00083234
0.000827113
0.00082151
0.000815638
0.000809589
0.000803448
0.000797282
0.000791148
0.000785091
0.000779152
0.000773402
0.000850707
0.000847137
0.000840905
0.000832091
0.00082112
0.000808561
0.00079498
0.000780864
0.000766595
0.00075246
0.00073866
0.00072533
0.000712555
0.000700382
0.000688831
0.000677906
0.000667599
0.000657949
0.000844113
0.000825224
0.000798529
0.000767731
0.000735649
0.000704132
0.000674222
0.000646403
0.000620834
0.000597489
0.000576252
0.000556961
0.000539441
0.000523519
0.000509034
0.000495836
0.000483794
0.000472838
0.000803425
0.000727158
0.000652719
0.000587765
0.000532943
0.000487159
0.000448903
0.000416758
0.000389553
0.000366355
0.000346427
0.000329186
0.000314172
0.000301015
0.000289421
0.000279154
0.00027002
0.000261887
0.000625871
0.000466125
0.000370236
0.000306331
0.000260963
0.000227481
0.000201984
0.000182058
0.000166154
0.000153236
0.000142586
0.000133693
0.000126185
0.000119784
0.000114279
0.000109513
0.000105364
0.000101754
0.000254186
0.000158464
0.000118168
9.48474e-05
7.98518e-05
6.9649e-05
6.24035e-05
5.70865e-05
5.3085e-05
5.00128e-05
4.76158e-05
4.57213e-05
4.42079e-05
4.2989e-05
4.20009e-05
4.11966e-05
4.05405e-05
4.00122e-05
3.69327e-05
4.20256e-05
4.57632e-05
4.86729e-05
5.10793e-05
5.30433e-05
5.4625e-05
5.58814e-05
5.68652e-05
5.76231e-05
5.81954e-05
5.86163e-05
5.89147e-05
5.91145e-05
5.92353e-05
5.92932e-05
5.93017e-05
5.92706e-05
4.37464e-06
1.17726e-05
1.32045e-05
1.43031e-05
1.53484e-05
1.63573e-05
1.75224e-05
1.87416e-05
1.99908e-05
2.12422e-05
2.24747e-05
2.36784e-05
2.48496e-05
2.59883e-05
2.70956e-05
2.81731e-05
2.92228e-05
3.02469e-05
3.12475e-05
3.22265e-05
3.3186e-05
3.41279e-05
3.50541e-05
3.59664e-05
3.68664e-05
3.77559e-05
3.86364e-05
3.95096e-05
4.03771e-05
4.12406e-05
4.21019e-05
4.2963e-05
4.38261e-05
4.46937e-05
4.55692e-05
4.64563e-05
4.736e-05
4.82825e-05
4.9209e-05
5.01389e-05
5.10727e-05
5.20106e-05
5.29528e-05
5.38993e-05
5.48504e-05
5.58061e-05
5.67662e-05
5.77308e-05
5.86997e-05
5.96728e-05
6.065e-05
6.16309e-05
6.26155e-05
6.36034e-05
6.45944e-05
6.5588e-05
6.6584e-05
6.7582e-05
6.85815e-05
6.95823e-05
7.05837e-05
7.15855e-05
7.2587e-05
7.35879e-05
7.45876e-05
7.55855e-05
7.65812e-05
7.75741e-05
7.85636e-05
7.95492e-05
8.05303e-05
8.15062e-05
8.24763e-05
8.34401e-05
8.43969e-05
8.5346e-05
8.62868e-05
8.72186e-05
8.81408e-05
8.90527e-05
8.99536e-05
9.08428e-05
9.17196e-05
9.25833e-05
9.3433e-05
9.42682e-05
9.50879e-05
9.58916e-05
9.66783e-05
9.74474e-05
9.81981e-05
9.89296e-05
9.96412e-05
0.000100332
0.000101002
0.000101651
0.000102277
0.000102882
0.000103465
0.000104027
0.00010457
0.000105097
0.000105609
0.000106094
0.000106553
0.000106987
0.000107396
0.00010778
0.00010814
0.000108475
0.000108787
0.000109074
0.000109338
0.000109579
0.000109797
0.000109992
0.000110165
0.000110316
0.000110445
0.000110552
0.000110639
0.000110704
0.000110749
0.000110774
0.000110778
0.000110763
0.000110729
0.000110675
0.000110602
0.00011051
0.0001104
0.000110272
0.000110125
0.00010996
0.000109777
0.000109575
0.000109356
0.000109118
0.000108861
0.000108585
0.00010829
0.000107975
0.000107639
0.000107282
0.000106902
0.000106499
0.000106071
0.000105617
0.000105135
0.000104623
0.000104079
0.000103502
0.000102889
0.000102239
0.000101547
0.000100801
0.000100045
9.91743e-05
9.86333e-05
9.82138e-05
9.77771e-05
9.73078e-05
9.68029e-05
9.62617e-05
9.56852e-05
9.50746e-05
9.44317e-05
9.37587e-05
9.30581e-05
9.23323e-05
9.15835e-05
9.08138e-05
9.00242e-05
8.92147e-05
8.83823e-05
8.75187e-05
8.66066e-05
8.55944e-05
8.43813e-05
8.27952e-05
6.45426e-06
3.48548e-05
6.65742e-05
8.65984e-05
9.75234e-05
0.000103801
0.000108049
0.000111792
0.000115647
0.000119799
0.000124269
0.000129026
0.000134028
0.000139236
0.000144618
0.000150143
0.000155788
0.000161531
0.000167353
0.000173239
0.000179176
0.000185154
0.000191164
0.000197198
0.000203252
0.000209321
0.000215402
0.000221492
0.000227589
0.00023369
0.000239795
0.000245901
0.000252006
0.000258109
0.00026421
0.000270312
0.000276421
0.000282555
0.000288737
0.000294979
0.000301288
0.000307673
0.000314138
0.00032069
0.000327333
0.00033407
0.000340906
0.000347843
0.000354884
0.00036203
0.000369285
0.000376649
0.000384123
0.000391708
0.000399404
0.000407211
0.000415129
0.000423157
0.000431294
0.000439539
0.00044789
0.000456344
0.000464901
0.000473557
0.000482309
0.000491155
0.00050009
0.000509112
0.000518216
0.000527399
0.000536655
0.000545982
0.000555373
0.000564824
0.000574331
0.000583887
0.000593488
0.000603127
0.0006128
0.0006225
0.000632221
0.000641958
0.000651703
0.000661449
0.000671189
0.000680917
0.000690622
0.000700297
0.000709931
0.000719515
0.000729037
0.000738484
0.000747843
0.0007571
0.000766238
0.000775241
0.000784089
0.000792761
0.000801234
0.000809483
0.000817478
0.000825185
0.00083224
0.000839033
0.000845618
0.000852006
0.0008582
0.000864203
0.000870017
0.000875646
0.000881091
0.000886357
0.000891447
0.000896363
0.000901109
0.00090569
0.000910111
0.000914375
0.000918488
0.000922455
0.000926282
0.000929975
0.00093354
0.000936982
0.000940309
0.000943526
0.000946638
0.000949651
0.00095257
0.000955401
0.00095815
0.000960823
0.000963422
0.000965952
0.000968414
0.00097081
0.000973142
0.000975409
0.00097761
0.000979738
0.000981789
0.000983756
0.000985627
0.000987388
0.000989026
0.000990518
0.000991846
0.000992982
0.000993897
0.000994561
0.000994936
0.000994993
0.000994679
0.000993974
0.000992832
0.000991048
0.000988402
0.000983906
0.00097634
0.000967489
0.00095794
0.000947865
0.000937335
0.000926394
0.000915078
0.000903426
0.000891481
0.000879285
0.000866884
0.000854322
0.000841643
0.000828888
0.000816092
0.00080328
0.00079046
0.000777611
0.000764651
0.000751356
0.000736521
0.000705688
7.85256e-06
5.61968e-05
0.000107955
0.000144346
0.000168563
0.000184992
0.000197038
0.000206995
0.000216211
0.000225379
0.000234802
0.000244581
0.000254722
0.000265192
0.000275946
0.000286936
0.000298118
0.000309453
0.000320907
0.000332451
0.00034406
0.000355715
0.000367401
0.000379107
0.000390825
0.00040255
0.00041428
0.000426013
0.000437753
0.000449502
0.000461266
0.000473052
0.000484867
0.000496722
0.00050863
0.000520605
0.000532665
0.00054483
0.000557119
0.000569548
0.000582132
0.000594882
0.000607811
0.000620928
0.000634243
0.000647763
0.000661496
0.000675447
0.000689622
0.000704025
0.000718661
0.000733532
0.000748639
0.000763985
0.00077957
0.000795394
0.000811455
0.000827752
0.000844283
0.000861045
0.000878033
0.000895244
0.000912672
0.000930312
0.000948157
0.000966199
0.000984433
0.00100285
0.00102144
0.00104019
0.0010591
0.00107815
0.00109733
0.00111663
0.00113604
0.00115555
0.00117515
0.00119481
0.00121453
0.00123429
0.00125409
0.00127389
0.0012937
0.00131348
0.00133323
0.00135293
0.00137256
0.00139209
0.00141151
0.00143079
0.00144992
0.00146886
0.00148758
0.00150606
0.00152426
0.00154215
0.00155969
0.00157685
0.00159359
0.00160986
0.00162563
0.00164068
0.00165498
0.00166876
0.00168209
0.00169498
0.00170744
0.00171948
0.00173109
0.0017423
0.00175309
0.00176347
0.00177346
0.00178306
0.00179227
0.0018011
0.00180956
0.00181767
0.00182543
0.00183285
0.00183994
0.00184672
0.00185321
0.00185941
0.00186534
0.00187101
0.00187644
0.00188164
0.00188663
0.00189141
0.00189602
0.00190045
0.00190473
0.00190886
0.00191286
0.00191673
0.00192049
0.00192413
0.00192766
0.00193107
0.00193436
0.00193752
0.00194053
0.00194337
0.00194601
0.00194841
0.00195053
0.00195232
0.00195371
0.00195465
0.00195505
0.00195486
0.00195398
0.00195234
0.00194979
0.00194609
0.00194079
0.00193313
0.00192223
0.00190923
0.00189478
0.00187917
0.00186252
0.00184492
0.00182645
0.00180719
0.00178723
0.00176664
0.00174552
0.00172396
0.00170205
0.00167988
0.00165751
0.00163499
0.00161232
0.00158944
0.00156612
0.00154171
0.0015138
0.00146878
8.89816e-06
7.2168e-05
0.00014045
0.000191921
0.000229014
0.000256081
0.000276796
0.000293861
0.000309084
0.000323567
0.000337922
0.000352446
0.000367259
0.000382386
0.000397804
0.000413472
0.000429344
0.000445374
0.000461523
0.000477755
0.000494042
0.000510362
0.000526699
0.000543041
0.000559383
0.000575722
0.000592061
0.000608405
0.000624761
0.000641141
0.000657558
0.000674026
0.000690563
0.000707187
0.000723918
0.000740777
0.000757785
0.000774963
0.000792333
0.000809913
0.000827721
0.000845773
0.000864083
0.000882666
0.000901534
0.000920696
0.000940164
0.000959944
0.000980044
0.00100047
0.00102123
0.00104232
0.00106375
0.00108551
0.00110761
0.00113005
0.00115283
0.00117593
0.00119936
0.00122312
0.00124719
0.00127157
0.00129625
0.00132122
0.00134647
0.001372
0.00139778
0.0014238
0.00145006
0.00147653
0.0015032
0.00153006
0.00155709
0.00158426
0.00161157
0.00163899
0.0016665
0.00169408
0.00172171
0.00174937
0.00177703
0.00180468
0.00183228
0.00185983
0.00188728
0.00191461
0.0019418
0.00196882
0.00199564
0.00202223
0.00204855
0.00207456
0.00210025
0.00212555
0.00215044
0.00217487
0.0021988
0.00222219
0.00224498
0.00226714
0.00228861
0.00230914
0.00232887
0.0023479
0.00236629
0.00238405
0.0024012
0.00241773
0.00243365
0.00244898
0.00246371
0.00247785
0.00249142
0.00250441
0.00251685
0.00252873
0.00254008
0.0025509
0.00256122
0.00257105
0.0025804
0.0025893
0.00259777
0.00260582
0.00261349
0.00262079
0.00262775
0.00263439
0.00264074
0.00264682
0.00265265
0.00265827
0.00266369
0.00266895
0.00267405
0.00267903
0.00268389
0.00268866
0.00269334
0.00269794
0.00270244
0.00270686
0.00271116
0.00271533
0.00271932
0.00272308
0.00272657
0.0027297
0.00273239
0.00273456
0.00273609
0.0027369
0.00273679
0.00273566
0.0027333
0.00272943
0.00272361
0.0027153
0.00270407
0.00269045
0.00267488
0.00265762
0.00263881
0.00261855
0.00259696
0.00257413
0.00255017
0.00252521
0.00249936
0.00247277
0.00244555
0.00241784
0.00238973
0.0023613
0.00233257
0.00230347
0.00227371
0.0022425
0.00220745
0.00216065
1.00856e-05
8.20024e-05
0.000165376
0.000231445
0.000281209
0.000318953
0.000348547
0.000372977
0.000394377
0.000414173
0.00043325
0.000452119
0.000471048
0.000490156
0.000509477
0.000529002
0.0005487
0.000568534
0.000588467
0.000608466
0.000628503
0.000648558
0.000668615
0.000688665
0.000708706
0.000728739
0.000748771
0.00076881
0.00078887
0.000808969
0.000829123
0.000849355
0.000869685
0.000890138
0.000910737
0.000931508
0.000952473
0.000973657
0.000995082
0.00101677
0.00103874
0.00106101
0.0010836
0.00110653
0.00112981
0.00115345
0.00117746
0.00120185
0.00122663
0.00125182
0.0012774
0.00130339
0.00132979
0.0013566
0.00138381
0.00141144
0.00143946
0.00146788
0.0014967
0.0015259
0.00155548
0.00158542
0.00161571
0.00164635
0.00167732
0.0017086
0.00174018
0.00177205
0.00180417
0.00183654
0.00186913
0.00190192
0.00193489
0.00196802
0.00200128
0.00203464
0.00206809
0.00210158
0.00213511
0.00216863
0.00220212
0.00223555
0.00226888
0.0023021
0.00233517
0.00236805
0.00240071
0.00243312
0.00246525
0.00249705
0.00252849
0.00255954
0.00259014
0.00262026
0.00264986
0.00267889
0.0027073
0.00273505
0.00276208
0.00278837
0.00281378
0.00283819
0.00286173
0.00288445
0.00290638
0.00292755
0.00294796
0.00296762
0.00298652
0.00300469
0.00302212
0.00303882
0.00305481
0.00307008
0.00308466
0.00309856
0.00311179
0.00312436
0.00313631
0.00314765
0.0031584
0.00316859
0.00317825
0.0031874
0.00319608
0.00320432
0.00321215
0.0032196
0.00322672
0.00323353
0.00324008
0.0032464
0.00325253
0.00325852
0.00326438
0.00327016
0.00327589
0.0032816
0.0032873
0.00329301
0.00329874
0.00330449
0.00331024
0.00331598
0.00332166
0.00332724
0.00333264
0.00333778
0.00334256
0.00334689
0.00335053
0.0033534
0.00335529
0.00335602
0.00335536
0.00335301
0.00334859
0.0033417
0.00333211
0.00331999
0.00330561
0.00328913
0.00327068
0.00325036
0.00322829
0.00320456
0.00317931
0.00315268
0.00312482
0.0030959
0.00306608
0.00303551
0.00300433
0.00297266
0.00294055
0.00290796
0.00287463
0.00283985
0.00280176
0.0027564
1.11084e-05
8.87703e-05
0.000184721
0.000264103
0.000325925
0.000374099
0.000412533
0.000444385
0.000472014
0.000497093
0.000520741
0.000543671
0.000566306
0.000588882
0.000611513
0.000634242
0.000657073
0.00067999
0.000702969
0.000725986
0.000749018
0.000772049
0.000795067
0.000818067
0.000841048
0.000864015
0.000886978
0.00090995
0.000932949
0.000955993
0.000979107
0.00100231
0.00102564
0.00104911
0.00107274
0.00109658
0.00112065
0.00114496
0.00116955
0.00119443
0.00121964
0.00124519
0.0012711
0.00129739
0.00132407
0.00135116
0.00137868
0.00140662
0.001435
0.00146383
0.00149312
0.00152286
0.00155305
0.00158371
0.00161482
0.00164638
0.0016784
0.00171085
0.00174374
0.00177706
0.00181079
0.00184492
0.00187944
0.00191434
0.00194959
0.00198519
0.0020211
0.00205731
0.0020938
0.00213055
0.00216753
0.00220471
0.00224208
0.00227959
0.00231723
0.00235495
0.00239274
0.00243056
0.00246838
0.00250616
0.00254388
0.00258148
0.00261895
0.00265625
0.00269333
0.00273017
0.00276673
0.00280296
0.00283884
0.00287432
0.00290936
0.00294392
0.00297797
0.00301145
0.00304433
0.00307655
0.00310807
0.00313885
0.00316883
0.00319798
0.00322608
0.00325318
0.00327935
0.00330461
0.00332899
0.0033525
0.00337515
0.00339693
0.00341785
0.00343792
0.00345714
0.00347552
0.00349306
0.00350978
0.0035257
0.00354082
0.00355516
0.00356875
0.0035816
0.00359374
0.0036052
0.00361601
0.0036262
0.00363581
0.00364489
0.00365346
0.00366157
0.00366927
0.0036766
0.00368361
0.00369036
0.0036969
0.00370328
0.00370955
0.00371576
0.00372196
0.00372821
0.00373455
0.00374101
0.00374762
0.00375442
0.00376141
0.00376859
0.00377594
0.00378347
0.00379106
0.0037987
0.00380627
0.0038136
0.00382059
0.00382703
0.00383277
0.00383758
0.00384125
0.00384351
0.00384404
0.00384251
0.0038386
0.00383208
0.00382299
0.0038114
0.00379741
0.00378111
0.00376257
0.00374188
0.00371917
0.00369455
0.0036682
0.00364028
0.00361097
0.00358047
0.00354896
0.00351662
0.00348361
0.00345002
0.00341586
0.00338096
0.00334477
0.00330601
0.00326264
1.1968e-05
9.35017e-05
0.000199651
0.000290764
0.00036371
0.000421794
0.000468807
0.000507967
0.000541775
0.000572077
0.000600182
0.000626974
0.000653028
0.000678701
0.000704198
0.000729631
0.000755051
0.000780474
0.0008059
0.000831319
0.000856719
0.000882092
0.000907431
0.000932736
0.000958008
0.000983257
0.0010085
0.00103374
0.00105901
0.00108432
0.00110971
0.00113519
0.0011608
0.00118657
0.00121252
0.00123868
0.00126508
0.00129175
0.00131872
0.001346
0.00137363
0.00140162
0.00143
0.00145879
0.001488
0.00151765
0.00154774
0.00157831
0.00160934
0.00164085
0.00167285
0.00170534
0.00173831
0.00177178
0.00180573
0.00184017
0.00187508
0.00191047
0.00194632
0.00198262
0.00201935
0.00205652
0.00209409
0.00213206
0.0021704
0.0022091
0.00224814
0.00228748
0.00232711
0.00236701
0.00240714
0.00244747
0.00248799
0.00252865
0.00256942
0.00261028
0.00265118
0.00269209
0.00273298
0.00277381
0.00281453
0.00285512
0.00289554
0.00293573
0.00297567
0.00301532
0.00305464
0.00309358
0.0031321
0.00317017
0.00320775
0.00324479
0.00328126
0.0033171
0.00335227
0.00338674
0.00342044
0.00345334
0.00348538
0.00351648
0.0035465
0.00357551
0.00360353
0.00363059
0.00365669
0.00368184
0.00370604
0.00372929
0.00375159
0.00377294
0.00379334
0.0038128
0.00383133
0.00384893
0.00386563
0.00388142
0.00389634
0.0039104
0.00392363
0.00393605
0.0039477
0.00395861
0.00396883
0.00397839
0.00398735
0.00399574
0.00400363
0.00401107
0.00401811
0.00402483
0.00403129
0.00403756
0.0040437
0.00404979
0.00405589
0.00406208
0.00406842
0.004075
0.00408185
0.00408903
0.00409659
0.0041046
0.004113
0.00412183
0.00413115
0.00414077
0.00415066
0.00416073
0.00417084
0.00418083
0.00419053
0.00419972
0.00420816
0.0042156
0.00422173
0.00422623
0.00422876
0.00422902
0.00422676
0.00422188
0.00421437
0.00420422
0.00419145
0.00417613
0.00415831
0.00413809
0.00411562
0.00409104
0.00406454
0.00403633
0.00400661
0.00397561
0.00394353
0.00391057
0.00387688
0.00384254
0.00380746
0.00377129
0.00373315
0.00369202
1.26863e-05
9.67173e-05
0.000210937
0.000312127
0.000395075
0.000462344
0.000517483
0.000563676
0.00060349
0.000638888
0.000671314
0.000701798
0.000731045
0.000759528
0.000787546
0.000815284
0.00084285
0.000870303
0.000897671
0.000924966
0.000952193
0.000979353
0.00100645
0.00103348
0.00106047
0.00108741
0.00111433
0.00114124
0.00116817
0.00119513
0.00122217
0.0012493
0.00127655
0.00130395
0.00133154
0.00135935
0.0013874
0.00141572
0.00144434
0.00147329
0.0015026
0.00153228
0.00156236
0.00159286
0.0016238
0.00165519
0.00168706
0.0017194
0.00175223
0.00178556
0.00181939
0.00185373
0.00188858
0.00192393
0.0019598
0.00199617
0.00203303
0.00207039
0.00210822
0.00214652
0.00218528
0.00222448
0.00226411
0.00230415
0.00234457
0.00238537
0.00242651
0.00246798
0.00250974
0.00255178
0.00259406
0.00263655
0.00267922
0.00272205
0.00276499
0.00280801
0.00285107
0.00289414
0.00293718
0.00298014
0.00302299
0.00306569
0.00310818
0.00315044
0.00319242
0.00323407
0.00327535
0.00331623
0.00335666
0.00339659
0.00343599
0.00347482
0.00351303
0.00355058
0.00358742
0.00362352
0.00365881
0.00369326
0.00372682
0.00375932
0.00379078
0.00382121
0.00385064
0.00387905
0.00390645
0.00393284
0.0039582
0.00398254
0.00400584
0.00402811
0.00404935
0.00406955
0.00408872
0.00410686
0.00412399
0.00414013
0.00415528
0.00416948
0.00418273
0.00419509
0.00420657
0.00421723
0.0042271
0.00423623
0.00424468
0.0042525
0.00425977
0.00426653
0.00427286
0.00427885
0.00428457
0.00429012
0.00429557
0.00430102
0.00430655
0.00431226
0.00431824
0.00432462
0.00433143
0.00433876
0.0043467
0.00435537
0.00436468
0.0043747
0.00438545
0.00439686
0.00440888
0.00442143
0.00443436
0.00444753
0.00446074
0.00447377
0.00448634
0.00449817
0.00450893
0.00451825
0.00452579
0.0045312
0.00453419
0.00453457
0.00453222
0.00452705
0.00451902
0.00450813
0.00449442
0.00447796
0.00445888
0.00443732
0.00441348
0.00438756
0.00435981
0.00433047
0.00429977
0.00426796
0.00423524
0.00420173
0.00416747
0.00413223
0.00409548
0.00405665
1.32835e-05
9.87447e-05
0.000219152
0.000328777
0.000420504
0.000496084
0.000558739
0.000611544
0.000657068
0.000697337
0.000733892
0.000767871
0.000800091
0.000831124
0.00086136
0.000891059
0.000920387
0.000949449
0.000978309
0.00100701
0.00103557
0.00106401
0.00109233
0.00112057
0.00114872
0.0011768
0.00120483
0.00123284
0.00126085
0.00128888
0.00131696
0.00134512
0.0013734
0.00140182
0.00143041
0.00145921
0.00148825
0.00151756
0.00154716
0.00157709
0.00160737
0.00163803
0.00166909
0.00170058
0.0017325
0.00176488
0.00179773
0.00183108
0.00186491
0.00189926
0.00193411
0.00196949
0.00200538
0.0020418
0.00207873
0.00211618
0.00215414
0.0021926
0.00223156
0.002271
0.00231091
0.00235128
0.00239209
0.00243333
0.00247498
0.00251702
0.00255942
0.00260216
0.00264522
0.00268858
0.00273219
0.00277604
0.00282009
0.00286431
0.00290866
0.0029531
0.00299761
0.00304213
0.00308663
0.00313107
0.0031754
0.00321958
0.00326356
0.00330729
0.00335074
0.00339386
0.0034366
0.00347892
0.00352077
0.00356211
0.00360289
0.00364308
0.00368263
0.0037215
0.00375964
0.00379701
0.00383356
0.00386923
0.00390395
0.00393764
0.00397031
0.00400196
0.00403257
0.00406214
0.00409065
0.00411809
0.00414445
0.00416971
0.00419387
0.0042169
0.00423882
0.00425961
0.00427927
0.0042978
0.00431522
0.00433154
0.00434676
0.00436092
0.00437402
0.00438612
0.00439723
0.00440741
0.00441671
0.00442517
0.00443286
0.00443984
0.00444618
0.00445195
0.00445725
0.00446216
0.00446678
0.00447122
0.00447559
0.00447999
0.00448451
0.0044893
0.00449448
0.0045002
0.00450652
0.00451355
0.0045214
0.00453019
0.00453994
0.00455071
0.00456254
0.00457542
0.00458931
0.00460414
0.0046198
0.00463614
0.00465297
0.00467004
0.00468708
0.00470374
0.00471968
0.00473449
0.00474778
0.00475916
0.00476828
0.00477484
0.00477862
0.00477946
0.00477724
0.00477189
0.0047634
0.00475182
0.00473724
0.0047198
0.00469969
0.00467712
0.00465235
0.00462565
0.00459727
0.00456751
0.00453659
0.00450473
0.00447201
0.00443835
0.00440342
0.00436691
1.37755e-05
9.98161e-05
0.000224748
0.000341217
0.000440442
0.000523353
0.000592785
0.000651646
0.000702458
0.000747266
0.000787669
0.000824884
0.000859815
0.00089312
0.000925269
0.000956589
0.000987308
0.00101758
0.0010475
0.00107715
0.00110656
0.00113578
0.00116483
0.00119374
0.00122251
0.00125119
0.00127978
0.00130831
0.00133682
0.00136532
0.00139386
0.00142245
0.00145114
0.00147995
0.00150892
0.00153807
0.00156745
0.00159708
0.001627
0.00165723
0.00168781
0.00171875
0.00175008
0.00178183
0.00181401
0.00184665
0.00187976
0.00191335
0.00194744
0.00198204
0.00201715
0.00205279
0.00208895
0.00212564
0.00216286
0.00220061
0.00223888
0.00227767
0.00231696
0.00235677
0.00239706
0.00243784
0.00247908
0.00252077
0.00256291
0.00260545
0.0026484
0.00269172
0.0027354
0.0027794
0.0028237
0.00286827
0.00291308
0.0029581
0.00300328
0.00304861
0.00309402
0.0031395
0.00318498
0.00323043
0.0032758
0.00332105
0.00336612
0.00341096
0.00345554
0.0034998
0.00354368
0.00358715
0.00363016
0.00367265
0.00371459
0.00375593
0.00379661
0.00383661
0.00387587
0.00391435
0.00395199
0.00398875
0.00402456
0.0040594
0.00409324
0.00412606
0.00415784
0.00418854
0.00421815
0.00424665
0.004274
0.00430019
0.0043252
0.00434902
0.00437162
0.00439301
0.00441316
0.0044321
0.0044498
0.00446628
0.00448156
0.00449564
0.00450856
0.00452034
0.00453102
0.00454065
0.00454927
0.00455695
0.00456374
0.00456973
0.00457498
0.00457957
0.00458362
0.00458721
0.00459047
0.00459351
0.00459649
0.00459949
0.00460266
0.00460614
0.0046101
0.00461467
0.00462001
0.00462623
0.00463349
0.00464191
0.0046516
0.00466264
0.00467511
0.00468904
0.00470442
0.00472123
0.00473938
0.00475873
0.00477911
0.00480026
0.00482189
0.00484365
0.00486514
0.00488593
0.00490556
0.00492358
0.00493956
0.00495311
0.00496391
0.00497169
0.00497626
0.00497747
0.00497524
0.00496958
0.00496053
0.00494823
0.00493284
0.00491458
0.00489371
0.00487051
0.00484529
0.00481834
0.00478997
0.0047604
0.00472981
0.00469822
0.00466542
0.00463126
1.41745e-05
0.000100108
0.000228096
0.000349885
0.000455295
0.000544469
0.000619823
0.000684059
0.000739607
0.000788498
0.000832357
0.000872453
0.000909756
0.000944991
0.000978697
0.00101126
0.00104297
0.00107402
0.00110456
0.00113468
0.00116445
0.00119394
0.00122318
0.0012522
0.00128105
0.00130974
0.0013383
0.00136677
0.00139517
0.00142354
0.0014519
0.00148029
0.00150875
0.0015373
0.00156599
0.00159484
0.00162389
0.00165317
0.00168271
0.00171255
0.00174272
0.00177323
0.00180412
0.00183542
0.00186714
0.0018993
0.00193193
0.00196504
0.00199865
0.00203276
0.00206739
0.00210254
0.00213824
0.00217447
0.00221124
0.00224855
0.00228641
0.00232481
0.00236375
0.00240323
0.00244322
0.00248374
0.00252476
0.00256627
0.00260827
0.00265074
0.00269365
0.00273699
0.00278074
0.00282487
0.00286936
0.00291418
0.00295931
0.0030047
0.00305032
0.00309615
0.00314212
0.00318822
0.00323438
0.00328056
0.00332672
0.0033728
0.00341875
0.00346452
0.00351005
0.00355529
0.00360019
0.0036447
0.00368875
0.00373231
0.00377532
0.00381774
0.00385951
0.0039006
0.00394094
0.0039805
0.00401923
0.00405713
0.00409415
0.00413024
0.00416535
0.00419945
0.0042325
0.00426445
0.00429528
0.00432495
0.00435342
0.00438067
0.00440667
0.00443139
0.00445482
0.00447692
0.0044977
0.00451715
0.00453525
0.00455201
0.00456743
0.00458154
0.00459434
0.00460588
0.00461618
0.00462529
0.00463327
0.00464017
0.00464605
0.00465102
0.00465512
0.00465847
0.00466116
0.00466331
0.00466505
0.00466652
0.00466785
0.0046692
0.00467072
0.00467258
0.00467495
0.00467801
0.00468194
0.00468691
0.00469311
0.00470069
0.00470982
0.00472063
0.00473323
0.00474772
0.00476414
0.0047825
0.00480276
0.00482481
0.00484849
0.00487357
0.00489976
0.00492668
0.00495391
0.00498097
0.00500735
0.00503252
0.00505597
0.00507721
0.00509581
0.00511139
0.00512365
0.00513237
0.00513738
0.00513861
0.00513608
0.00512988
0.00512014
0.00510709
0.00509098
0.00507211
0.00505081
0.0050274
0.00500221
0.00497553
0.00494757
0.00491845
0.00488806
0.00485632
1.44905e-05
9.97568e-05
0.000229504
0.000355162
0.000465424
0.000559711
0.000640018
0.00070881
0.000768401
0.000820775
0.000867559
0.00091005
0.000949264
0.00098598
0.00102079
0.00105415
0.00108637
0.00111771
0.00114834
0.00117839
0.00120797
0.00123715
0.00126598
0.00129452
0.00132281
0.00135088
0.00137877
0.00140651
0.00143415
0.0014617
0.00148921
0.00151672
0.00154425
0.00157184
0.00159954
0.00162736
0.00165536
0.00168357
0.00171201
0.00174072
0.00176974
0.00179909
0.0018288
0.0018589
0.00188941