/*--------------------------------*- C++ -*----------------------------------*\
| =========                 |                                                 |
| \\      /  F ield         | OpenFOAM: The Open Source CFD Toolbox           |
|  \\    /   O peration     | Version:  2.2.x                                 |
|   \\  /    A nd           | Web:      www.OpenFOAM.org                      |
|    \\/     M anipulation  |                                                 |
\*---------------------------------------------------------------------------*/
FoamFile
{
    version     2.0;
    format      ascii;
    class       volScalarField;
    location    "600";
    object      p;
}
// * * * * * * * * * * * * * * * * * * * * * * * * * * * * * * * * * * * * * //

dimensions      [0 2 -2 0 0 0 0];

internalField   nonuniform List<scalar> 
12225
(
-0.303479
-3.0083
-3.85624
-4.09589
-4.26009
-4.40146
-4.51552
-4.61026
-4.69415
-4.77145
-4.84413
-4.91346
-4.98042
-5.04575
-5.10981
-5.17175
-5.2283
-5.1953
-4.09196
-4.44685
-4.55791
-4.51263
-4.5197
-4.56874
-4.62732
-4.68718
-4.74821
-4.81008
-4.87208
-4.93385
-4.99537
-5.05673
-5.11802
-5.17935
-5.24542
-5.36095
-3.93906
-3.78408
-3.98608
-4.12086
-4.24436
-4.37016
-4.48293
-4.58118
-4.66939
-4.75071
-4.8268
-4.8989
-4.96807
-5.0352
-5.10119
-5.16747
-5.23928
-5.33567
-3.85458
-3.84353
-4.11629
-4.2847
-4.39665
-4.49789
-4.58751
-4.66603
-4.73776
-4.80555
-4.87069
-4.93394
-4.99596
-5.05736
-5.11888
-5.18202
-5.25063
-5.33382
-3.89091
-3.93999
-4.15247
-4.2892
-4.38206
-4.47144
-4.55646
-4.63471
-4.70808
-4.77825
-4.84597
-4.9117
-4.97596
-5.0393
-5.10246
-5.16669
-5.23426
-5.3078
-3.96494
-4.01542
-4.17603
-4.29975
-4.39276
-4.48189
-4.56697
-4.64556
-4.71892
-4.78862
-4.85552
-4.92019
-4.98321
-5.04513
-5.10662
-5.16856
-5.23202
-5.297
-4.03034
-4.0724
-4.19953
-4.31353
-4.40487
-4.49071
-4.57252
-4.64875
-4.7203
-4.78846
-4.85401
-4.91747
-4.97931
-5.03997
-5.09991
-5.15956
-5.21918
-5.27749
-4.08163
-4.1184
-4.22498
-4.32916
-4.41682
-4.49915
-4.57803
-4.65232
-4.72253
-4.7896
-4.85419
-4.91671
-4.97753
-5.03699
-5.09537
-5.15284
-5.2093
-5.26317
-4.12511
-4.15817
-4.249
-4.34394
-4.42759
-4.50667
-4.58286
-4.65529
-4.72412
-4.79005
-4.85358
-4.91506
-4.97477
-5.03295
-5.08975
-5.14515
-5.1989
-5.24941
-4.17032
-4.19965
-4.27594
-4.36114
-4.44002
-4.51541
-4.58855
-4.65872
-4.72584
-4.79032
-4.85253
-4.91271
-4.97105
-5.02769
-5.08266
-5.13583
-5.18684
-5.23432
-4.21646
-4.24195
-4.3055
-4.3809
-4.45425
-4.52546
-4.59514
-4.66264
-4.72767
-4.79036
-4.85093
-4.90952
-4.96621
-5.02104
-5.07395
-5.12475
-5.17307
-5.21782
-4.26255
-4.28432
-4.33705
-4.40297
-4.47019
-4.53679
-4.60264
-4.66707
-4.72962
-4.79019
-4.8488
-4.9055
-4.96025
-5.01303
-5.06371
-5.11208
-5.15782
-5.20012
-4.30745
-4.3258
-4.36957
-4.42666
-4.48747
-4.54912
-4.61085
-4.67189
-4.7316
-4.7897
-4.84605
-4.90056
-4.95314
-5.00367
-5.05202
-5.09797
-5.14129
-5.18139
-4.34973
-4.36512
-4.40161
-4.45084
-4.50532
-4.5619
-4.61935
-4.67674
-4.73334
-4.7887
-4.84253
-4.89463
-4.94485
-4.99303
-5.03901
-5.08263
-5.12371
-5.16183
-4.38759
-4.40055
-4.43127
-4.47386
-4.52247
-4.57411
-4.6273
-4.681
-4.73436
-4.78681
-4.83796
-4.88754
-4.93532
-4.98113
-5.02481
-5.06624
-5.10529
-5.14165
-4.41865
-4.42974
-4.45611
-4.4934
-4.53699
-4.5842
-4.63347
-4.68365
-4.73386
-4.78344
-4.83194
-4.87902
-4.92443
-4.96798
-5.00952
-5.04895
-5.08619
-5.121
-4.43964
-4.44943
-4.47281
-4.50633
-4.54616
-4.58987
-4.63592
-4.68315
-4.73063
-4.77769
-4.82383
-4.86868
-4.91197
-4.95353
-4.99322
-5.03095
-5.06667
-5.10021
-4.44547
-4.45465
-4.47663
-4.50836
-4.54631
-4.58816
-4.63239
-4.67785
-4.72361
-4.769
-4.81352
-4.8568
-4.89858
-4.93869
-4.97702
-5.01349
-5.04807
-5.0806
-4.43579
-4.44499
-4.46713
-4.49912
-4.53726
-4.57912
-4.62318
-4.6683
-4.71362
-4.75845
-4.80233
-4.84492
-4.88599
-4.92539
-4.96302
-4.99884
-5.03282
-5.06483
-4.41496
-4.42458
-4.44807
-4.48201
-4.52203
-4.56536
-4.61049
-4.65638
-4.70219
-4.74729
-4.79125
-4.83378
-4.87468
-4.91384
-4.95117
-4.98666
-5.0203
-5.05196
-4.38618
-4.39636
-4.42224
-4.45974
-4.50307
-4.54895
-4.59606
-4.64351
-4.69051
-4.73648
-4.78107
-4.82404
-4.86524
-4.90458
-4.94202
-4.97756
-5.01122
-5.04291
-4.35181
-4.36216
-4.3915
-4.43437
-4.48214
-4.5312
-4.58081
-4.63026
-4.67878
-4.72587
-4.77127
-4.81482
-4.85641
-4.896
-4.93357
-4.96912
-5.00268
-5.03413
-4.3139
-4.32297
-4.35729
-4.40786
-4.4611
-4.5138
-4.56636
-4.61825
-4.66867
-4.71724
-4.76382
-4.80832
-4.85068
-4.89087
-4.9289
-4.96481
-4.99864
-5.03036
-4.27436
-4.27904
-4.32042
-4.38073
-4.4395
-4.49572
-4.55123
-4.60529
-4.65715
-4.70671
-4.75401
-4.79907
-4.84186
-4.88239
-4.92067
-4.9567
-4.99046
-5.02172
-4.23443
-4.23069
-4.28603
-4.35838
-4.42161
-4.48169
-4.54145
-4.59901
-4.65346
-4.70499
-4.75381
-4.80003
-4.84368
-4.88485
-4.92358
-4.9599
-4.99385
-5.02541
-4.19148
-4.16217
-4.24751
-4.33546
-4.39778
-4.45616
-4.51553
-4.57297
-4.62759
-4.67973
-4.72952
-4.77692
-4.8219
-4.86447
-4.90461
-4.94228
-4.97727
-5.00888
-4.18545
-4.07057
-4.20999
-4.34022
-4.42282
-4.49326
-4.55838
-4.61688
-4.6701
-4.71972
-4.76649
-4.81072
-4.8526
-4.89227
-4.92982
-4.96525
-4.99843
-5.02902
-4.28281
-3.95155
-4.02699
-4.12877
-4.21963
-4.3149
-4.40548
-4.48653
-4.55944
-4.62603
-4.68723
-4.74364
-4.7958
-4.84418
-4.88917
-4.93107
-4.96985
-5.00481
-4.58159
-4.64659
-4.67891
-4.60511
-4.57106
-4.58261
-4.6112
-4.64546
-4.6833
-4.72346
-4.76453
-4.80545
-4.84561
-4.88465
-4.92243
-4.95897
-4.99433
-5.02971
-0.887258
-3.08099
-3.87859
-4.09807
-4.23198
-4.35064
-4.44774
-4.52732
-4.59638
-4.65864
-4.71564
-4.76822
-4.81703
-4.86259
-4.90537
-4.94592
-4.98494
-5.02726
-5.88229
-5.88262
-5.88364
-5.88495
-5.8863
-5.88772
-5.8895
-5.89184
-5.89474
-5.89821
-5.90232
-5.90708
-5.91254
-5.91869
-5.92556
-5.93313
-5.9414
-5.95036
-5.95999
-5.97026
-5.98117
-5.99268
-6.00478
-6.01744
-6.03064
-6.04438
-6.05863
-6.07338
-6.08862
-6.10434
-6.12053
-6.13719
-6.15432
-6.17191
-6.18997
-6.20852
-6.22753
-6.24694
-6.26671
-6.28687
-6.30739
-6.32828
-6.34953
-6.37112
-6.39304
-6.41525
-6.43774
-6.46048
-6.48343
-6.50655
-6.52979
-6.55312
-6.57648
-6.59981
-6.62305
-6.64612
-6.66896
-6.69149
-6.71362
-6.73526
-6.7563
-6.77666
-6.79622
-6.81486
-6.83246
-6.8489
-6.86404
-6.87775
-6.88987
-6.90025
-6.90875
-6.9152
-6.91943
-6.92127
-6.92053
-6.91705
-6.91062
-6.90107
-6.88818
-6.87177
-6.85162
-6.82754
-6.79932
-6.76673
-6.72957
-6.68763
-6.6407
-6.58856
-6.531
-6.46783
-6.39884
-6.32385
-6.24266
-6.15511
-6.06103
-5.96027
-5.8527
-5.7382
-5.61665
-5.48796
-5.35205
-5.20881
-5.05816
-4.90005
-4.73451
-4.56155
-4.38117
-4.19337
-3.99816
-3.79555
-3.58552
-3.36811
-3.1433
-2.91112
-2.67158
-2.4247
-2.17049
-1.90899
-1.64023
-1.36426
-1.08114
-0.790923
-0.493688
-0.189525
0.121458
0.439137
0.763363
1.09396
1.43074
1.77348
2.12192
2.4758
2.8348
3.19857
3.56673
3.93886
4.31452
4.69322
5.07443
5.45758
5.84208
6.2273
6.61256
6.99716
7.38039
7.76146
8.13962
8.51405
8.88395
9.24847
9.60682
9.95813
10.3016
10.6364
10.962
11.2775
11.5811
11.8751
12.1588
12.4288
12.6848
12.9268
13.1547
13.3685
13.5681
13.7535
13.9248
14.0822
14.2261
14.3567
14.4746
14.5803
14.6746
14.7582
14.8324
14.8987
14.9599
15.0201
15.0938
15.1857
-5.87902
-5.87994
-5.88116
-5.88226
-5.88297
-5.88349
-5.88421
-5.88552
-5.88752
-5.89025
-5.8937
-5.89789
-5.90283
-5.90852
-5.91495
-5.92211
-5.93
-5.93859
-5.94786
-5.95778
-5.96835
-5.97952
-5.99129
-6.00362
-6.0165
-6.0299
-6.04383
-6.05825
-6.07316
-6.08855
-6.10441
-6.12074
-6.13753
-6.15477
-6.17247
-6.19062
-6.2092
-6.22819
-6.24758
-6.26736
-6.28751
-6.30804
-6.32892
-6.35015
-6.3717
-6.39356
-6.41569
-6.43808
-6.46068
-6.48346
-6.50638
-6.52939
-6.55244
-6.57547
-6.59842
-6.62123
-6.64382
-6.66611
-6.68802
-6.70946
-6.73033
-6.75053
-6.76996
-6.7885
-6.80604
-6.82243
-6.83756
-6.85129
-6.86347
-6.87395
-6.88258
-6.88921
-6.89366
-6.89576
-6.89533
-6.89221
-6.88619
-6.8771
-6.86473
-6.84888
-6.82937
-6.80598
-6.7785
-6.74672
-6.71044
-6.66943
-6.6235
-6.57242
-6.516
-6.45402
-6.38628
-6.31259
-6.23277
-6.14664
-6.05404
-5.95481
-5.84881
-5.73592
-5.61603
-5.48906
-5.3549
-5.21338
-5.06441
-4.908
-4.74419
-4.57296
-4.39434
-4.20832
-4.0149
-3.8141
-3.60591
-3.39035
-3.16742
-2.93714
-2.69952
-2.45458
-2.20233
-1.94281
-1.67606
-1.40212
-1.12104
-0.832883
-0.537726
-0.235656
0.0732229
0.388788
0.710897
1.03938
1.37405
1.71468
2.06104
2.41285
2.7698
3.13156
3.49776
3.86798
4.24179
4.6187
4.9982
5.37974
5.76272
6.14655
6.53054
6.91401
7.29626
7.67652
8.05405
8.42805
8.79771
9.16221
9.52075
9.87242
10.2165
10.5522
10.8793
11.1972
11.5035
11.7989
12.083
12.3536
12.6106
12.8538
13.0832
13.2987
13.5002
13.6876
13.8611
14.0209
14.1672
14.3004
14.421
14.5295
14.6265
14.7131
14.7904
14.8601
14.9253
14.9897
15.0691
15.1518
-5.87138
-5.87374
-5.8766
-5.87843
-5.87919
-5.87957
-5.88013
-5.88119
-5.88291
-5.88534
-5.88851
-5.89242
-5.89709
-5.9025
-5.90863
-5.91549
-5.92305
-5.93129
-5.94019
-5.94974
-5.9599
-5.97066
-5.98199
-5.99389
-6.00632
-6.01927
-6.03272
-6.04667
-6.06111
-6.07602
-6.09139
-6.10723
-6.12352
-6.14026
-6.15745
-6.17507
-6.19313
-6.21159
-6.23046
-6.24973
-6.26938
-6.28941
-6.3098
-6.33054
-6.35161
-6.37299
-6.39465
-6.41657
-6.43872
-6.46104
-6.48352
-6.50609
-6.52872
-6.55134
-6.57389
-6.59631
-6.61853
-6.64047
-6.66205
-6.68318
-6.70376
-6.7237
-6.74289
-6.76122
-6.77857
-6.79482
-6.80984
-6.82349
-6.83563
-6.84611
-6.85479
-6.86151
-6.86609
-6.86839
-6.86821
-6.86538
-6.85972
-6.85105
-6.83916
-6.82387
-6.80497
-6.78226
-6.75554
-6.7246
-6.68923
-6.64921
-6.60435
-6.55442
-6.49922
-6.43854
-6.37219
-6.29996
-6.22167
-6.13714
-6.04621
-5.94872
-5.84452
-5.73349
-5.61552
-5.49053
-5.35835
-5.2188
-5.0718
-4.91742
-4.75565
-4.58651
-4.41
-4.22612
-4.03488
-3.83629
-3.63035
-3.41707
-3.19646
-2.96852
-2.73329
-2.49076
-2.24096
-1.98393
-1.7197
-1.44832
-1.16982
-0.884284
-0.591775
-0.292382
0.0137933
0.326632
0.645995
0.971717
1.30361
1.64146
1.98503
2.33405
2.68822
3.04721
3.41066
3.77816
4.14926
4.52352
4.90042
5.27941
5.6599
6.04132
6.42298
6.80422
7.18436
7.56261
7.93828
8.31053
8.67859
9.04159
9.39879
9.7493
10.0928
10.4284
10.7556
11.0736
11.3807
11.6778
11.9644
12.2381
12.4986
12.7455
12.9787
13.1981
13.4035
13.595
13.7727
13.9366
14.0871
14.2244
14.3491
14.4618
14.563
14.6538
14.7354
14.8095
14.8794
14.9477
15.0308
15.0961
-5.86171
-5.86546
-5.87047
-5.87396
-5.8759
-5.87716
-5.87833
-5.87975
-5.88164
-5.88412
-5.88726
-5.89109
-5.89563
-5.90088
-5.90682
-5.91345
-5.92075
-5.92871
-5.9373
-5.94651
-5.95632
-5.96671
-5.97766
-5.98915
-6.00117
-6.0137
-6.02673
-6.04025
-6.05425
-6.06872
-6.08366
-6.09905
-6.11489
-6.13118
-6.14792
-6.16509
-6.18269
-6.20072
-6.21916
-6.238
-6.25724
-6.27686
-6.29686
-6.31722
-6.33791
-6.35892
-6.38023
-6.4018
-6.4236
-6.4456
-6.46776
-6.49003
-6.51236
-6.5347
-6.55699
-6.57916
-6.60115
-6.62287
-6.64424
-6.66519
-6.68561
-6.7054
-6.72447
-6.74271
-6.75999
-6.77619
-6.79119
-6.80485
-6.81703
-6.82759
-6.83638
-6.84325
-6.84802
-6.85054
-6.85063
-6.84811
-6.84281
-6.83454
-6.82311
-6.80833
-6.78999
-6.7679
-6.74186
-6.71165
-6.67707
-6.6379
-6.59395
-6.54499
-6.49083
-6.43124
-6.36604
-6.29501
-6.21799
-6.13478
-6.04521
-5.94913
-5.8464
-5.73687
-5.62047
-5.49707
-5.36642
-5.22834
-5.08291
-4.93013
-4.77
-4.60254
-4.42774
-4.24561
-4.05615
-3.85938
-3.65529
-3.44391
-3.22522
-2.99925
-2.76601
-2.52551
-2.27778
-2.02284
-1.76073
-1.49149
-1.21517
-0.931821
-0.641527
-0.344368
-0.0404402
0.270141
0.587241
0.910698
1.24033
1.57592
1.91723
2.26401
2.61596
2.97276
3.33404
3.6994
4.06841
4.44062
4.81554
5.19258
5.5712
5.95082
6.33077
6.71036
7.08898
7.46578
7.84011
8.21108
8.57797
8.93996
9.2965
9.64707
9.99081
10.3268
10.6545
10.9732
11.2815
11.5801
11.8682
12.1441
12.407
12.6566
12.8927
13.1151
13.3237
13.5184
13.6993
13.8665
14.0203
14.161
14.289
14.405
14.5095
14.6036
14.6885
14.7656
14.8382
14.907
14.9879
15.0357
-5.85295
-5.8578
-5.86479
-5.87013
-5.87354
-5.87596
-5.87803
-5.88014
-5.88252
-5.88536
-5.88874
-5.89272
-5.89734
-5.90261
-5.90852
-5.91507
-5.92224
-5.93004
-5.93843
-5.9474
-5.95695
-5.96705
-5.97768
-5.98884
-6.00052
-6.01269
-6.02536
-6.03851
-6.05213
-6.06622
-6.08077
-6.09578
-6.11124
-6.12715
-6.14351
-6.16031
-6.17755
-6.19522
-6.21331
-6.23182
-6.25074
-6.27006
-6.28976
-6.30983
-6.33024
-6.35099
-6.37205
-6.39338
-6.41496
-6.43675
-6.45871
-6.48079
-6.50295
-6.52513
-6.54727
-6.5693
-6.59117
-6.61278
-6.63407
-6.65494
-6.6753
-6.69506
-6.71411
-6.73234
-6.74963
-6.76587
-6.78093
-6.79467
-6.80696
-6.81765
-6.82659
-6.83364
-6.83862
-6.84138
-6.84174
-6.83953
-6.83456
-6.82666
-6.81564
-6.8013
-6.78344
-6.76187
-6.73639
-6.70678
-6.67284
-6.63437
-6.59114
-6.54295
-6.48959
-6.43085
-6.36653
-6.29643
-6.22035
-6.13813
-6.04958
-5.95455
-5.85289
-5.74448
-5.62921
-5.50692
-5.37727
-5.24022
-5.09589
-4.94426
-4.78533
-4.6191
-4.44557
-4.26476
-4.07666
-3.88128
-3.67863
-3.46871
-3.25153
-3.0271
-2.79543
-2.55654
-2.31043
-2.05715
-1.79672
-1.52919
-1.25459
-0.972981
-0.684439
-0.389041
-0.0868802
0.221938
0.53728
0.858989
1.18688
1.52075
1.86036
2.20546
2.55576
2.91096
3.27068
3.63452
4.00203
4.37282
4.74639
5.12214
5.49949
5.87798
6.25686
6.6354
7.01313
7.38903
7.76261
8.13295
8.49944
8.86173
9.21876
9.56977
9.91408
10.2508
10.5794
10.8991
11.2087
11.5083
11.7974
12.0746
12.3391
12.5906
12.8287
13.0532
13.2641
13.4611
13.6444
13.814
13.9703
14.1134
14.2439
14.3623
14.4692
14.5655
14.6524
14.7311
14.8045
14.8715
14.9473
14.98
-5.8471
-5.85272
-5.86111
-5.86801
-5.8728
-5.87638
-5.87942
-5.88231
-5.88531
-5.88861
-5.89234
-5.89658
-5.90138
-5.90674
-5.9127
-5.91923
-5.92635
-5.93404
-5.94228
-5.95108
-5.96042
-5.97028
-5.98066
-5.99155
-6.00293
-6.0148
-6.02715
-6.03998
-6.05328
-6.06705
-6.08127
-6.09596
-6.1111
-6.1267
-6.14276
-6.15926
-6.17621
-6.1936
-6.21143
-6.22969
-6.24836
-6.26745
-6.28694
-6.30681
-6.32704
-6.34762
-6.36851
-6.3897
-6.41115
-6.43282
-6.45467
-6.47666
-6.49874
-6.52085
-6.54294
-6.56493
-6.58677
-6.60837
-6.62966
-6.65054
-6.67093
-6.69073
-6.70983
-6.72813
-6.74551
-6.76185
-6.77702
-6.79089
-6.80333
-6.81419
-6.82332
-6.83057
-6.83577
-6.83877
-6.8394
-6.83748
-6.83283
-6.82526
-6.8146
-6.80065
-6.78321
-6.76208
-6.73707
-6.70796
-6.67455
-6.63663
-6.59398
-6.5464
-6.49367
-6.43558
-6.37194
-6.30254
-6.22718
-6.1457
-6.0579
-5.96364
-5.86277
-5.75517
-5.64074
-5.51908
-5.39001
-5.2537
-5.11015
-4.95935
-4.8013
-4.636
-4.46345
-4.28366
-4.09662
-3.90234
-3.70084
-3.4921
-3.27615
-3.05298
-2.8226
-2.58503
-2.34028
-2.08838
-1.82935
-1.56323
-1.29007
-1.00991
-0.72283
-0.428893
-0.128192
0.179177
0.493087
0.813377
1.13987
1.47236
1.81062
2.15439
2.50342
2.85739
3.21594
3.57863
3.94504
4.3148
4.68743
5.06226
5.43872
5.81646
6.19464
6.57244
6.94964
7.32502
7.69832
8.06903
8.4359
8.79847
9.15594
9.50751
9.8525
10.1901
10.5195
10.8402
11.151
11.4517
11.7418
12.0201
12.286
12.5391
12.7789
13.0052
13.2179
13.4168
13.6021
13.7737
13.932
14.0771
14.2094
14.3296
14.4382
14.536
14.6242
14.7035
14.7765
14.8407
14.9112
14.9303
-5.84523
-5.8512
-5.86034
-5.8683
-5.87418
-5.87874
-5.88264
-5.88625
-5.88984
-5.89362
-5.89772
-5.90224
-5.90723
-5.91273
-5.91875
-5.9253
-5.93239
-5.94001
-5.94815
-5.9568
-5.96597
-5.97564
-5.98581
-5.99647
-6.00761
-6.01922
-6.03132
-6.04388
-6.05691
-6.07041
-6.08437
-6.0988
-6.11369
-6.12904
-6.14485
-6.16113
-6.17786
-6.19505
-6.21268
-6.23076
-6.24928
-6.26821
-6.28756
-6.30731
-6.32744
-6.34792
-6.36874
-6.38986
-6.41126
-6.43289
-6.45472
-6.47669
-6.49877
-6.5209
-6.54301
-6.56504
-6.58692
-6.60858
-6.62994
-6.6509
-6.67138
-6.69128
-6.71049
-6.72891
-6.74642
-6.7629
-6.77823
-6.79227
-6.80488
-6.81592
-6.82525
-6.83271
-6.83814
-6.84138
-6.84226
-6.8406
-6.83623
-6.82897
-6.81862
-6.805
-6.7879
-6.76714
-6.74251
-6.7138
-6.68081
-6.64332
-6.60113
-6.55401
-6.50176
-6.44417
-6.38103
-6.31213
-6.2373
-6.15634
-6.06908
-5.97535
-5.87503
-5.76799
-5.65402
-5.53268
-5.40395
-5.2681
-5.12509
-4.97489
-4.81748
-4.65288
-4.48109
-4.3021
-4.11591
-3.92254
-3.72198
-3.51424
-3.29931
-3.07722
-2.84794
-2.61151
-2.36792
-2.11721
-1.85939
-1.59451
-1.32259
-1.04369
-0.757863
-0.465183
-0.165734
0.140406
0.453109
0.772216
1.09755
1.42891
1.76607
2.10877
2.45679
2.80983
3.16748
3.52933
3.89488
4.26392
4.63594
5.01012
5.38592
5.76323
6.141
6.5183
6.89543
7.27122
7.64472
8.01559
8.38282
8.74581
9.1038
9.45602
9.80172
10.1401
10.4705
10.7921
11.104
11.4059
11.697
11.9764
12.2437
12.4981
12.7395
12.9674
13.1817
13.3824
13.5693
13.7426
13.9025
14.0492
14.1831
14.3046
14.4145
14.5133
14.6021
14.6813
14.7532
14.8143
14.8796
14.8867
-5.84721
-5.8532
-5.86257
-5.87112
-5.87773
-5.88303
-5.88759
-5.89179
-5.89589
-5.90008
-5.9045
-5.90927
-5.91444
-5.92005
-5.92613
-5.9327
-5.93976
-5.94732
-5.95537
-5.9639
-5.97293
-5.98244
-5.99243
-6.00289
-6.01383
-6.02524
-6.03712
-6.04947
-6.06229
-6.07557
-6.08933
-6.10356
-6.11826
-6.13343
-6.14908
-6.16519
-6.18178
-6.19883
-6.21635
-6.23432
-6.25274
-6.2716
-6.29089
-6.31059
-6.33068
-6.35115
-6.37196
-6.39309
-6.41451
-6.43617
-6.45804
-6.48008
-6.50222
-6.52442
-6.54662
-6.56875
-6.59074
-6.61252
-6.634
-6.65509
-6.67571
-6.69575
-6.71511
-6.73369
-6.75136
-6.76801
-6.78351
-6.79773
-6.81053
-6.82176
-6.83129
-6.83895
-6.84459
-6.84805
-6.84915
-6.84773
-6.8436
-6.83658
-6.82649
-6.81313
-6.79632
-6.77584
-6.75151
-6.72311
-6.69043
-6.65326
-6.6114
-6.56462
-6.51271
-6.45546
-6.39267
-6.32412
-6.24963
-6.16901
-6.08209
-5.98871
-5.88876
-5.78208
-5.66812
-5.54673
-5.41824
-5.2827
-5.14004
-4.99025
-4.83333
-4.66927
-4.49807
-4.31973
-4.13425
-3.94163
-3.74188
-3.53499
-3.32097
-3.09981
-2.87152
-2.63609
-2.39354
-2.14389
-1.88716
-1.62337
-1.35257
-1.07479
-0.790079
-0.498512
-0.200166
0.104906
0.416577
0.734678
1.05904
1.38947
1.72572
2.06754
2.41479
2.76714
3.12415
3.48537
3.85028
4.21885
4.59058
4.96434
5.33968
5.71684
6.09486
6.47243
6.84962
7.22561
7.59949
7.97072
8.33846
8.70204
9.06069
9.41365
9.76015
10.0994
10.4307
10.7533
11.0663
11.3692
11.6614
11.942
12.2104
12.4662
12.7089
12.9383
13.154
13.3561
13.5445
13.7192
13.8804
14.0284
14.1635
14.2861
14.3968
14.4962
14.5851
14.6638
14.7341
14.7917
14.8523
14.8487
-5.85258
-5.85837
-5.86755
-5.87628
-5.88328
-5.88904
-5.89406
-5.89868
-5.90315
-5.90765
-5.91232
-5.91727
-5.92256
-5.92826
-5.93437
-5.94094
-5.94796
-5.95545
-5.96341
-5.97183
-5.98073
-5.9901
-5.99993
-6.01024
-6.02101
-6.03226
-6.04397
-6.05616
-6.06882
-6.08195
-6.09556
-6.10965
-6.12423
-6.13928
-6.15482
-6.17085
-6.18736
-6.20435
-6.22181
-6.23975
-6.25815
-6.277
-6.2963
-6.31602
-6.33614
-6.35665
-6.37753
-6.39873
-6.42022
-6.44198
-6.46396
-6.4861
-6.50837
-6.5307
-6.55304
-6.57532
-6.59746
-6.61939
-6.64102
-6.66228
-6.68306
-6.70328
-6.72281
-6.74156
-6.75941
-6.77624
-6.79191
-6.80631
-6.81928
-6.83069
-6.84039
-6.84823
-6.85405
-6.85769
-6.85897
-6.85773
-6.85378
-6.84696
-6.83706
-6.82389
-6.80727
-6.787
-6.76287
-6.73467
-6.70221
-6.66525
-6.6236
-6.57703
-6.52534
-6.4683
-6.40571
-6.33736
-6.26306
-6.18262
-6.09587
-6.00267
-5.9029
-5.79616
-5.68194
-5.56045
-5.43205
-5.29666
-5.15423
-5.00473
-4.84817
-4.68453
-4.51382
-4.33603
-4.15116
-3.95921
-3.76017
-3.55406
-3.34085
-3.12056
-2.89317
-2.65867
-2.41708
-2.16841
-1.91268
-1.64992
-1.38014
-1.10339
-0.819711
-0.529163
-0.231828
0.0722952
0.38307
0.700301
1.02383
1.35347
1.68897
2.03003
2.37668
2.72859
3.08517
3.44594
3.81031
4.17856
4.55028
4.92413
5.29966
5.67683
6.05493
6.43292
6.81048
7.18688
7.56132
7.93315
8.30158
8.66591
9.02536
9.37917
9.72656
10.0668
10.399
10.7226
11.0367
11.3406
11.6338
11.9155
12.185
12.442
12.686
12.9166
13.1336
13.337
13.5266
13.7025
13.8648
14.0138
14.1498
14.2731
14.3843
14.4839
14.5725
14.6502
14.7187
14.7728
14.8289
14.8161
-5.86076
-5.86616
-5.87487
-5.88342
-5.8905
-5.89646
-5.90172
-5.90659
-5.91128
-5.91596
-5.92079
-5.92584
-5.9312
-5.93692
-5.94303
-5.94956
-5.95652
-5.96393
-5.97179
-5.98011
-5.98888
-5.99813
-6.00783
-6.01801
-6.02865
-6.03977
-6.05136
-6.06344
-6.07599
-6.08902
-6.10255
-6.11656
-6.13107
-6.14608
-6.16158
-6.17758
-6.19408
-6.21107
-6.22855
-6.24652
-6.26496
-6.28387
-6.30324
-6.32304
-6.34325
-6.36387
-6.38485
-6.40618
-6.42781
-6.44971
-6.47183
-6.49414
-6.51656
-6.53906
-6.56157
-6.58401
-6.60633
-6.62843
-6.65025
-6.67168
-6.69264
-6.71302
-6.73273
-6.75165
-6.76966
-6.78664
-6.80247
-6.81702
-6.83013
-6.84169
-6.85152
-6.85949
-6.86544
-6.86919
-6.87059
-6.86947
-6.86564
-6.85892
-6.84912
-6.83607
-6.81955
-6.79938
-6.77535
-6.74726
-6.7149
-6.67805
-6.63649
-6.59002
-6.53841
-6.48145
-6.41893
-6.35064
-6.27638
-6.19598
-6.10927
-6.01611
-5.91627
-5.809
-5.6943
-5.57276
-5.44437
-5.30905
-5.16676
-5.01749
-4.86121
-4.69793
-4.52764
-4.35034
-4.16603
-3.97469
-3.77633
-3.57095
-3.35853
-3.13907
-2.91254
-2.67893
-2.43826
-2.19054
-1.93578
-1.674
-1.40521
-1.12944
-0.846736
-0.557158
-0.2608
0.0424531
0.352438
0.668895
0.99169
1.32064
1.65548
1.99583
2.3419
2.69348
3.04976
3.41035
3.77475
4.14288
4.51444
4.88843
5.26433
5.64182
6.02026
6.39881
6.77698
7.15402
7.52922
7.90185
8.27115
8.63638
8.99677
9.35155
9.69993
10.0411
10.3744
10.699
11.0141
11.319
11.6132
11.8959
12.1666
12.4246
12.6697
12.9014
13.1195
13.3239
13.5146
13.6914
13.8546
14.0044
14.141
14.2648
14.3762
14.4757
14.5637
14.6402
14.7066
14.7573
14.8093
14.7882
-5.87108
-5.87598
-5.884
-5.89209
-5.89899
-5.90491
-5.91021
-5.91514
-5.9199
-5.92466
-5.92952
-5.93459
-5.93995
-5.94563
-5.95169
-5.95815
-5.96502
-5.97233
-5.98009
-5.9883
-5.99697
-6.0061
-6.0157
-6.02577
-6.03632
-6.04735
-6.05887
-6.07087
-6.08337
-6.09636
-6.10985
-6.12385
-6.13836
-6.15338
-6.1689
-6.18494
-6.20149
-6.21854
-6.2361
-6.25416
-6.2727
-6.29173
-6.31121
-6.33114
-6.3515
-6.37227
-6.39341
-6.41489
-6.43669
-6.45876
-6.48106
-6.50355
-6.52615
-6.54883
-6.57152
-6.59414
-6.61663
-6.63891
-6.66089
-6.68248
-6.7036
-6.72413
-6.74398
-6.76303
-6.78117
-6.79826
-6.8142
-6.82884
-6.84204
-6.85366
-6.86357
-6.87159
-6.87758
-6.88138
-6.88281
-6.88171
-6.8779
-6.8712
-6.86141
-6.84836
-6.83184
-6.81167
-6.78764
-6.75954
-6.72717
-6.6903
-6.64873
-6.60223
-6.55059
-6.49359
-6.43101
-6.36265
-6.28831
-6.20783
-6.12107
-6.02779
-5.92716
-5.81907
-5.70418
-5.58256
-5.45413
-5.31884
-5.17666
-5.02756
-4.87155
-4.7086
-4.53872
-4.36189
-4.17811
-3.98739
-3.7897
-3.58504
-3.37341
-3.1548
-2.92912
-2.69638
-2.45663
-2.20986
-1.95606
-1.69526
-1.42744
-1.15265
-0.870907
-0.582294
-0.286955
0.015347
0.324555
0.640243
0.962315
1.29061
1.62491
1.96488
2.31049
2.66158
3.01755
3.37802
3.74252
4.11079
4.48243
4.85672
5.23309
5.61111
5.99013
6.36942
6.74838
7.12629
7.50243
7.87605
8.24638
8.61267
8.97414
9.33
9.67946
10.0217
10.3561
10.6817
10.9978
11.3038
11.599
11.8826
12.1542
12.4133
12.6593
12.892
13.111
13.3163
13.5078
13.6854
13.8493
13.9996
14.1366
14.2606
14.372
14.471
14.5582
14.6332
14.6974
14.7447
14.793
14.7648
-5.88288
-5.8872
-5.89438
-5.90182
-5.90832
-5.91399
-5.91914
-5.92398
-5.92867
-5.93336
-5.93816
-5.94316
-5.94843
-5.95402
-5.95998
-5.96632
-5.97309
-5.98028
-5.98793
-5.99603
-6.00459
-6.01363
-6.02315
-6.03315
-6.04364
-6.05462
-6.0661
-6.07809
-6.09058
-6.10358
-6.1171
-6.13114
-6.1457
-6.16079
-6.17639
-6.19253
-6.20918
-6.22635
-6.24404
-6.26224
-6.28093
-6.3001
-6.31975
-6.33985
-6.36038
-6.38132
-6.40264
-6.42431
-6.44629
-6.46854
-6.49102
-6.51368
-6.53646
-6.5593
-6.58215
-6.60493
-6.62756
-6.64997
-6.67208
-6.69379
-6.71501
-6.73563
-6.75556
-6.77467
-6.79286
-6.80999
-6.82595
-6.84059
-6.85379
-6.86539
-6.87526
-6.88324
-6.88918
-6.89291
-6.89427
-6.89309
-6.88918
-6.88237
-6.87248
-6.85931
-6.84268
-6.82239
-6.79824
-6.77001
-6.73751
-6.70052
-6.65881
-6.61217
-6.56038
-6.50322
-6.44047
-6.37193
-6.29741
-6.21678
-6.1298
-6.03557
-5.93388
-5.82544
-5.71038
-5.58864
-5.46016
-5.3249
-5.18283
-5.03392
-4.87818
-4.71557
-4.54611
-4.36977
-4.18656
-3.99646
-3.79947
-3.59557
-3.38476
-3.16706
-2.94236
-2.71056
-2.47176
-2.22599
-1.97323
-1.71345
-1.44667
-1.1729
-0.892159
-0.604504
-0.310033
-0.00869368
0.29954
0.614382
0.935696
1.26332
1.59705
1.93663
2.28191
2.63266
2.98843
3.34885
3.71348
4.08197
4.45389
4.8286
5.20557
5.58426
5.96405
6.34423
6.72416
7.10312
7.48036
7.85514
8.22667
8.59417
8.95686
9.31392
9.66457
10.008
10.3435
10.6701
10.9873
11.2943
11.5904
11.875
12.1475
12.4074
12.6542
12.8877
13.1075
13.3135
13.5056
13.6838
13.8481
13.9988
14.136
14.26
14.3711
14.4695
14.5557
14.6291
14.691
14.735
14.7797
14.7454
-5.89555
-5.89927
-5.90554
-5.91218
-5.9181
-5.92336
-5.92818
-5.93276
-5.93724
-5.94173
-5.94636
-5.95119
-5.95629
-5.96173
-5.96753
-5.97373
-5.98035
-5.98742
-5.99495
-6.00294
-6.01142
-6.02038
-6.02984
-6.0398
-6.05027
-6.06124
-6.07274
-6.08475
-6.09729
-6.11035
-6.12395
-6.13808
-6.15275
-6.16795
-6.18369
-6.19996
-6.21676
-6.2341
-6.25195
-6.27031
-6.28918
-6.30853
-6.32835
-6.34863
-6.36934
-6.39046
-6.41195
-6.43379
-6.45593
-6.47833
-6.50096
-6.52375
-6.54666
-6.56962
-6.59257
-6.61544
-6.63815
-6.66062
-6.68277
-6.7045
-6.72573
-6.74634
-6.76624
-6.78531
-6.80343
-6.82049
-6.83634
-6.85087
-6.86394
-6.8754
-6.88511
-6.89291
-6.89866
-6.9022
-6.90335
-6.90195
-6.89783
-6.89078
-6.88064
-6.86723
-6.85036
-6.82983
-6.80543
-6.77697
-6.74423
-6.707
-6.66504
-6.61815
-6.56611
-6.50868
-6.44568
-6.3769
-6.30213
-6.22116
-6.13303
-6.03748
-5.93535
-5.82679
-5.71165
-5.58983
-5.46134
-5.32615
-5.18424
-5.03558
-4.88015
-4.71794
-4.54896
-4.37318
-4.19059
-4.0012
-3.80497
-3.6019
-3.39198
-3.17519
-2.95149
-2.72079
-2.4831
-2.23844
-1.98679
-1.72814
-1.46248
-1.18982
-0.910177
-0.623572
-0.330065
-0.0296609
0.277619
0.591592
0.912126
1.23906
1.57221
1.91135
2.25628
2.60675
2.96237
3.32278
3.68756
4.05633
4.42862
4.80387
5.18151
5.56099
5.94167
6.32287
6.70391
7.08406
7.46256
7.83865
8.21153
8.58039
8.94443
9.30283
9.65478
9.99947
10.3361
10.6639
10.9822
11.2901
11.5871
11.8726
12.1459
12.4065
12.6541
12.8882
13.1086
13.3152
13.5077
13.6863
13.8508
14.0016
14.1388
14.2625
14.3732
14.4708
14.5557
14.6274
14.687
14.7279
14.7692
14.7297
-5.9086
-5.91172
-5.91705
-5.9228
-5.92801
-5.9327
-5.93705
-5.94121
-5.94532
-5.94949
-5.95381
-5.95837
-5.96322
-5.96843
-5.97402
-5.98003
-5.98649
-5.99342
-6.00082
-6.00872
-6.01712
-6.02604
-6.03547
-6.04542
-6.0559
-6.06691
-6.07846
-6.09055
-6.10317
-6.11634
-6.13006
-6.14433
-6.15914
-6.17449
-6.19039
-6.20683
-6.2238
-6.24131
-6.25933
-6.27787
-6.29691
-6.31643
-6.33641
-6.35684
-6.3777
-6.39894
-6.42056
-6.4425
-6.46474
-6.48723
-6.50992
-6.53276
-6.5557
-6.57868
-6.60162
-6.62445
-6.6471
-6.6695
-6.69155
-6.71317
-6.73426
-6.75472
-6.77444
-6.79331
-6.81121
-6.82802
-6.84363
-6.85788
-6.87066
-6.88181
-6.8912
-6.89868
-6.90409
-6.90728
-6.90808
-6.90634
-6.90188
-6.8945
-6.88401
-6.87024
-6.85302
-6.83215
-6.80742
-6.77862
-6.74554
-6.70798
-6.6657
-6.61847
-6.56611
-6.50837
-6.4451
-6.37606
-6.30072
-6.21819
-6.12859
-6.03265
-5.93037
-5.82169
-5.70652
-5.58473
-5.45634
-5.32132
-5.17965
-5.03132
-4.87631
-4.7146
-4.5462
-4.37108
-4.18924
-4.00066
-3.80532
-3.6032
-3.39428
-3.17854
-2.95592
-2.72638
-2.48989
-2.24646
-1.99604
-1.73863
-1.4742
-1.20276
-0.924299
-0.638842
-0.346418
-0.047046
0.259229
0.572278
0.891974
1.21817
1.55069
1.88933
2.23387
2.58405
2.93952
3.29992
3.66486
4.03391
4.40662
4.78243
5.16079
5.54112
5.92278
6.30508
6.68732
7.06877
7.44865
7.82618
8.20053
8.57088
8.93641
9.29627
9.64962
9.99566
10.3336
10.6626
10.9819
11.2909
11.5888
11.875
12.149
12.4103
12.6585
12.8931
13.114
13.3208
13.5137
13.6924
13.857
14.0077
14.1447
14.268
14.378
14.4747
14.5582
14.6281
14.6853
14.7233
14.7613
14.7176
-5.92166
-5.92423
-5.92865
-5.93346
-5.93785
-5.94182
-5.94552
-5.94909
-5.95267
-5.95635
-5.96024
-5.9644
-5.9689
-5.9738
-5.97912
-5.9849
-5.99117
-5.99794
-6.00523
-6.01304
-6.02138
-6.03027
-6.0397
-6.04968
-6.06021
-6.07129
-6.08293
-6.09512
-6.10787
-6.12118
-6.13504
-6.14945
-6.16442
-6.17994
-6.19599
-6.21259
-6.22972
-6.24737
-6.26554
-6.2842
-6.30335
-6.32297
-6.34304
-6.36353
-6.38443
-6.40571
-6.42733
-6.44926
-6.47145
-6.49388
-6.51648
-6.53921
-6.56202
-6.58484
-6.60761
-6.63024
-6.65266
-6.6748
-6.69657
-6.71789
-6.73866
-6.75878
-6.77813
-6.79662
-6.81412
-6.83053
-6.8457
-6.85951
-6.87183
-6.88252
-6.89144
-6.89845
-6.90338
-6.90608
-6.9064
-6.90417
-6.89922
-6.89138
-6.88045
-6.86624
-6.84858
-6.82728
-6.80212
-6.7729
-6.73942
-6.70145
-6.65879
-6.61118
-6.55851
-6.50043
-6.43678
-6.36669
-6.28946
-6.20573
-6.11584
-6.01978
-5.91742
-5.80869
-5.69352
-5.57186
-5.44368
-5.30896
-5.16768
-5.01982
-4.86537
-4.70431
-4.53664
-4.36234
-4.18139
-3.99378
-3.79948
-3.59847
-3.39071
-3.17617
-2.9548
-2.72656
-2.49142
-2.24934
-2.00029
-1.74424
-1.48117
-1.21107
-0.933917
-0.649725
-0.358506
-0.0602824
0.244897
0.55693
0.875704
1.20108
1.5329
1.87095
2.21503
2.56487
2.92014
3.28049
3.64552
4.01483
4.38793
4.7643
5.14337
5.52456
5.90721
6.29065
6.67415
7.05696
7.43829
7.81734
8.19327
8.56522
8.93235
9.29378
9.64866
9.99615
10.3354
10.6657
10.9861
11.2961
11.5949
11.8819
12.1566
12.4185
12.6671
12.9021
13.1232
13.3303
13.5232
13.7019
13.8664
14.0169
14.1534
14.2761
14.3853
14.4808
14.5629
14.6309
14.6857
14.721
14.7557
14.7087
-5.93458
-5.93667
-5.94025
-5.94411
-5.94756
-5.95063
-5.95348
-5.95625
-5.95908
-5.96208
-5.96536
-5.96898
-5.97301
-5.9775
-5.98248
-5.98799
-5.99403
-6.00063
-6.00779
-6.01552
-6.02382
-6.0327
-6.04215
-6.05217
-6.06277
-6.07394
-6.08567
-6.09798
-6.11085
-6.12429
-6.13828
-6.15283
-6.16792
-6.18355
-6.19972
-6.2164
-6.2336
-6.25131
-6.26951
-6.28818
-6.30731
-6.32689
-6.34688
-6.36728
-6.38805
-6.40917
-6.4306
-6.45231
-6.47425
-6.4964
-6.5187
-6.54109
-6.56353
-6.58595
-6.6083
-6.6305
-6.65246
-6.67413
-6.6954
-6.7162
-6.73643
-6.756
-6.77478
-6.79269
-6.8096
-6.82541
-6.83997
-6.85318
-6.86488
-6.87496
-6.88326
-6.88965
-6.89397
-6.89607
-6.89579
-6.89297
-6.88744
-6.87903
-6.86755
-6.85282
-6.83465
-6.81285
-6.78721
-6.75754
-6.72359
-6.68522
-6.64221
-6.59423
-6.54129
-6.48254
-6.41684
-6.34484
-6.26704
-6.18322
-6.09333
-5.99727
-5.89496
-5.78634
-5.67137
-5.55
-5.42221
-5.28796
-5.14725
-5.00004
-4.84633
-4.6861
-4.51935
-4.34604
-4.16617
-3.97971
-3.78663
-3.58689
-3.38047
-3.16731
-2.94737
-2.72059
-2.48694