/*--------------------------------*- C++ -*----------------------------------*\
| =========                 |                                                 |
| \\      /  F ield         | OpenFOAM: The Open Source CFD Toolbox           |
|  \\    /   O peration     | Version:  2.2.x                                 |
|   \\  /    A nd           | Web:      www.OpenFOAM.org                      |
|    \\/     M anipulation  |                                                 |
\*---------------------------------------------------------------------------*/
FoamFile
{
    version     2.0;
    format      ascii;
    class       surfaceScalarField;
    location    "600";
    object      phi;
}
// * * * * * * * * * * * * * * * * * * * * * * * * * * * * * * * * * * * * * //

dimensions      [0 3 -1 0 0 0 0];

internalField   nonuniform List<scalar> 
24170
(
3.08816e-06
4.57359e-08
3.0142e-06
7.396e-08
2.95204e-06
6.21543e-08
2.88975e-06
6.22913e-08
2.83017e-06
5.95765e-08
2.77473e-06
5.54436e-08
2.72345e-06
5.12766e-08
2.67607e-06
4.73835e-08
2.63228e-06
4.37922e-08
2.59179e-06
4.04926e-08
2.55432e-06
3.7466e-08
2.51963e-06
3.46894e-08
2.48749e-06
3.21406e-08
2.45768e-06
2.98082e-08
2.42996e-06
2.77207e-08
2.40378e-06
2.61752e-08
2.37692e-06
2.68592e-08
3.0469e-08
2.34646e-06
3.46858e-06
3.35989e-08
3.45792e-06
8.46194e-08
3.4434e-06
7.66786e-08
3.42858e-06
7.711e-08
3.41239e-06
7.57656e-08
3.39525e-06
7.25829e-08
3.37748e-06
6.90435e-08
3.35933e-06
6.5536e-08
3.34102e-06
6.21048e-08
3.32274e-06
5.8768e-08
3.30466e-06
5.55422e-08
3.28692e-06
5.24378e-08
3.26959e-06
4.94622e-08
3.25277e-06
4.66334e-08
3.23647e-06
4.40158e-08
3.22081e-06
4.18375e-08
3.20726e-06
4.04128e-08
3.79411e-08
3.19978e-06
3.80922e-06
3.65702e-08
3.81785e-06
7.5989e-08
3.82009e-06
7.44451e-08
3.82216e-06
7.50388e-08
3.82295e-06
7.49687e-08
3.82243e-06
7.31101e-08
3.82091e-06
7.05625e-08
3.81864e-06
6.78066e-08
3.81579e-06
6.49519e-08
3.81251e-06
6.20507e-08
3.8089e-06
5.91468e-08
3.80507e-06
5.62706e-08
3.80109e-06
5.34441e-08
3.79703e-06
5.06923e-08
3.79298e-06
4.80601e-08
3.7892e-06
4.56221e-08
3.78635e-06
4.32635e-08
3.9452e-08
3.78484e-06
4.20601e-06
3.51138e-08
4.21523e-06
6.67761e-08
4.21957e-06
7.01075e-08
4.2232e-06
7.14019e-08
4.22619e-06
7.19843e-08
4.22845e-06
7.08447e-08
4.23022e-06
6.87949e-08
4.23164e-06
6.63869e-08
4.23279e-06
6.37989e-08
4.23373e-06
6.11086e-08
4.23451e-06
5.83708e-08
4.23516e-06
5.5622e-08
4.23572e-06
5.28852e-08
4.23623e-06
5.01763e-08
4.23679e-06
4.75054e-08
4.23756e-06
4.48432e-08
4.23888e-06
4.19501e-08
3.78416e-08
4.24049e-06
4.64072e-06
3.17028e-08
4.64866e-06
5.88382e-08
4.65361e-06
6.51545e-08
4.65778e-06
6.72338e-08
4.66159e-06
6.81691e-08
4.66495e-06
6.74849e-08
4.66795e-06
6.58006e-08
4.67067e-06
6.36619e-08
4.67318e-06
6.12851e-08
4.67553e-06
5.8765e-08
4.67774e-06
5.61625e-08
4.67984e-06
5.35172e-08
4.68187e-06
5.08509e-08
4.68388e-06
4.81707e-08
4.68592e-06
4.54634e-08
4.6881e-06
4.26626e-08
4.69049e-06
3.95626e-08
3.56896e-08
4.69264e-06
5.11835e-06
2.79526e-08
5.12555e-06
5.16374e-08
5.13106e-06
5.964e-08
5.13578e-06
6.25109e-08
5.14016e-06
6.37886e-08
5.14414e-06
6.35117e-08
5.14775e-06
6.21836e-08
5.1511e-06
6.03126e-08
5.15425e-06
5.81414e-08
5.15723e-06
5.57831e-08
5.16008e-06
5.33072e-08
5.16284e-06
5.07575e-08
5.16554e-06
4.81563e-08
5.1682e-06
4.55067e-08
5.17088e-06
4.27869e-08
5.17361e-06
3.99301e-08
5.17638e-06
3.67949e-08
3.31728e-08
5.17889e-06
5.64454e-06
2.4418e-08
5.65123e-06
4.49538e-08
5.65709e-06
5.37755e-08
5.66225e-06
5.735e-08
5.66706e-06
5.89748e-08
5.67151e-06
5.90704e-08
5.67561e-06
5.80841e-08
5.67944e-06
5.64801e-08
5.68306e-06
5.45166e-08
5.68652e-06
5.23238e-08
5.68985e-06
4.998e-08
5.69307e-06
4.75337e-08
5.69622e-06
4.50097e-08
5.69931e-06
4.2412e-08
5.70238e-06
3.97218e-08
5.70542e-06
3.68913e-08
5.70837e-06
3.38431e-08
3.05156e-08
5.71102e-06
4.40852e-06
2.20064e-08
4.41294e-06
4.05356e-08
4.41725e-06
4.94655e-08
4.42116e-06
5.34386e-08
4.42484e-06
5.53018e-08
4.42828e-06
5.56294e-08
4.43149e-06
5.48688e-08
4.43452e-06
5.34541e-08
4.43739e-06
5.16436e-08
4.44014e-06
4.95759e-08
4.44278e-06
4.73352e-08
4.44534e-06
4.49736e-08
4.44783e-06
4.25186e-08
4.45027e-06
3.99773e-08
4.45265e-06
3.73375e-08
4.45498e-06
3.45679e-08
4.45719e-06
3.16259e-08
2.85115e-08
4.4592e-06
5.14231e-06
1.95489e-08
5.14681e-06
3.60382e-08
5.15144e-06
4.48372e-08
5.1558e-06
4.90831e-08
5.15995e-06
5.11442e-08
5.1639e-06
5.16857e-08
5.16762e-06
5.11468e-08
5.17114e-06
4.99282e-08
5.17451e-06
4.8283e-08
5.17773e-06
4.63556e-08
5.18083e-06
4.42346e-08
5.18382e-06
4.19759e-08
5.18673e-06
3.96107e-08
5.18956e-06
3.71512e-08
5.1923e-06
3.45943e-08
5.19494e-06
3.19263e-08
5.19743e-06
2.91332e-08
2.62518e-08
5.19969e-06
5.99826e-06
1.70772e-08
6.00278e-06
3.15251e-08
6.00766e-06
3.99505e-08
6.01243e-06
4.4316e-08
6.01707e-06
4.65087e-08
6.02152e-06
4.72273e-08
6.02578e-06
4.68927e-08
6.02984e-06
4.58672e-08
6.03373e-06
4.4394e-08
6.03746e-06
4.26192e-08
6.04106e-06
4.06347e-08
6.04454e-06
3.84995e-08
6.0479e-06
3.62489e-08
6.05115e-06
3.39017e-08
6.05428e-06
3.14651e-08
6.05727e-06
2.8941e-08
6.06006e-06
2.63367e-08
2.37048e-08
6.06261e-06
6.99672e-06
1.4622e-08
7.00119e-06
2.70561e-08
7.00628e-06
3.48618e-08
7.01142e-06
3.91747e-08
7.01651e-06
4.14156e-08
7.02148e-06
4.22575e-08
7.02628e-06
4.20952e-08
7.0309e-06
4.12499e-08
7.03534e-06
3.99486e-08
7.03963e-06
3.83354e-08
7.04376e-06
3.65031e-08
7.04774e-06
3.45129e-08
7.05159e-06
3.24046e-08
7.05529e-06
3.02035e-08
7.05883e-06
2.79262e-08
7.06218e-06
2.55873e-08
7.06531e-06
2.32067e-08
2.08406e-08
7.06817e-06
8.16143e-06
1.22104e-08
8.16581e-06
2.26675e-08
8.17105e-06
2.96287e-08
8.17652e-06
3.37013e-08
8.18205e-06
3.58887e-08
8.18752e-06
3.67857e-08
8.19286e-06
3.67514e-08
8.19805e-06
3.60644e-08
8.20307e-06
3.49295e-08
8.20792e-06
3.34838e-08
8.2126e-06
3.18185e-08
8.21712e-06
2.9996e-08
8.22147e-06
2.80594e-08
8.22563e-06
2.60394e-08
8.2296e-06
2.39599e-08
8.23334e-06
2.18432e-08
8.23683e-06
1.97156e-08
1.76291e-08
8.24004e-06
9.52008e-06
9.85932e-09
9.52437e-06
1.83735e-08
9.5297e-06
2.42999e-08
9.53546e-06
2.79377e-08
9.5414e-06
2.99511e-08
9.54737e-06
3.08215e-08
9.55326e-06
3.08597e-08
9.55902e-06
3.03006e-08
9.56463e-06
2.93215e-08
9.57007e-06
2.80472e-08
9.57532e-06
2.65639e-08
9.58038e-06
2.49328e-08
9.58525e-06
2.31983e-08
9.58989e-06
2.13942e-08
9.5943e-06
1.95483e-08
9.59846e-06
1.76865e-08
9.60234e-06
1.58359e-08
1.40412e-08
9.60593e-06
1.1105e-05
7.57158e-09
1.11092e-05
1.41649e-08
1.11146e-05
1.89021e-08
1.11206e-05
2.19166e-08
1.1127e-05
2.36206e-08
1.11334e-05
2.43699e-08
1.11398e-05
2.4415e-08
1.11462e-05
2.39452e-08
1.11524e-05
2.31059e-08
1.11585e-05
2.20042e-08
1.11643e-05
2.0717e-08
1.11699e-05
1.93009e-08
1.11753e-05
1.77985e-08
1.11805e-05
1.62434e-08
1.11854e-05
1.4664e-08
1.119e-05
1.30854e-08
1.11943e-05
1.15323e-08
1.00411e-08
1.11983e-05
1.29539e-05
5.33141e-09
1.2958e-05
1.00057e-08
1.29635e-05
1.34267e-08
1.29698e-05
1.56447e-08
1.29765e-05
1.68975e-08
1.29834e-05
1.7422e-08
1.29905e-05
1.74009e-08
1.29974e-05
1.69749e-08
1.30043e-05
1.62542e-08
1.3011e-05
1.53227e-08
1.30174e-05
1.42434e-08
1.30237e-05
1.30639e-08
1.30297e-05
1.18212e-08
1.30354e-05
1.05453e-08
1.30408e-05
9.26108e-09
1.30458e-05
7.99031e-09
1.30506e-05
6.75315e-09
5.57804e-09
1.30551e-05
1.51107e-05
3.09897e-09
1.51149e-05
5.82267e-09
1.51205e-05
7.8112e-09
1.51271e-05
9.07635e-09
1.51342e-05
9.73877e-09
1.51417e-05
9.93282e-09
1.51493e-05
9.77026e-09
1.5157e-05
9.3402e-09
1.51645e-05
8.71413e-09
1.51719e-05
7.94833e-09
1.5179e-05
7.08655e-09
1.51859e-05
6.163e-09
1.51926e-05
5.20502e-09
1.51989e-05
4.23499e-09
1.52049e-05
3.27164e-09
1.52105e-05
2.33102e-09
1.52158e-05
1.42755e-09
5.82269e-10
1.52208e-05
1.76267e-05
8.0227e-10
1.76311e-05
1.48277e-09
1.7637e-05
1.90679e-09
1.7644e-05
2.07043e-09
1.76517e-05
2.0124e-09
1.76599e-05
1.77762e-09
1.76682e-05
1.40547e-09
1.76767e-05
9.29734e-10
1.7685e-05
3.79221e-10
1.76932e-05
-2.22118e-10
1.77011e-05
-8.54627e-10
1.77088e-05
-1.502e-09
1.77161e-05
-2.15047e-09
1.77231e-05
-2.78835e-09
1.77298e-05
-3.40557e-09
1.77361e-05
-3.99345e-09
1.77421e-05
-4.54405e-09
-5.04331e-09
1.77477e-05
1.78284e-05
-1.37431e-09
1.78325e-05
-2.6502e-09
1.78382e-05
-3.75215e-09
1.78449e-05
-4.68294e-09
1.78524e-05
-5.46685e-09
1.78603e-05
-6.14002e-09
1.78685e-05
-6.73244e-09
1.78766e-05
-7.26384e-09
1.78848e-05
-7.74735e-09
1.78927e-05
-8.1917e-09
1.79005e-05
-8.60214e-09
1.7908e-05
-8.98129e-09
1.79152e-05
-9.32991e-09
1.7922e-05
-9.64759e-09
1.79285e-05
-9.93321e-09
1.79347e-05
-1.01853e-08
1.79406e-05
-1.04018e-08
-1.05746e-08
1.79461e-05
1.58833e-05
-3.32193e-09
1.5887e-05
-6.35744e-09
1.58921e-05
-8.83154e-09
1.58981e-05
-1.07257e-08
1.59048e-05
-1.21299e-08
1.59118e-05
-1.31669e-08
1.5919e-05
-1.39324e-08
1.59262e-05
-1.44936e-08
1.59334e-05
-1.49012e-08
1.59404e-05
-1.51933e-08
1.59472e-05
-1.53978e-08
1.59537e-05
-1.55337e-08
1.596e-05
-1.56146e-08
1.5966e-05
-1.565e-08
1.59717e-05
-1.56464e-08
1.59772e-05
-1.56085e-08
1.59823e-05
-1.55388e-08
-1.54336e-08
1.59872e-05
1.41505e-05
-5.14603e-09
1.4154e-05
-9.86051e-09
1.41588e-05
-1.36231e-08
1.41644e-05
-1.63622e-08
1.41706e-05
-1.82714e-08
1.4177e-05
-1.95851e-08
1.41835e-05
-2.0462e-08
1.419e-05
-2.10114e-08
1.41964e-05
-2.13189e-08
1.42027e-05
-2.14498e-08
1.42088e-05
-2.14507e-08
1.42146e-05
-2.13549e-08
1.42201e-05
-2.11864e-08
1.42255e-05
-2.09629e-08
1.42305e-05
-2.06971e-08
1.42353e-05
-2.03986e-08
1.42398e-05
-2.00736e-08
-1.97222e-08
1.42441e-05
1.26068e-05
-6.88536e-09
1.26102e-05
-1.33022e-08
1.26149e-05
-1.83196e-08
1.26203e-05
-2.17737e-08
1.26261e-05
-2.40614e-08
1.26321e-05
-2.55609e-08
1.26381e-05
-2.64823e-08
1.26441e-05
-2.69718e-08
1.26499e-05
-2.71497e-08
1.26555e-05
-2.71049e-08
1.2661e-05
-2.68995e-08
1.26662e-05
-2.65778e-08
1.26712e-05
-2.6172e-08
1.26759e-05
-2.57063e-08
1.26805e-05
-2.5199e-08
1.26847e-05
-2.46637e-08
1.26888e-05
-2.41108e-08
-2.3544e-08
1.26926e-05
1.12314e-05
-8.50967e-09
1.12349e-05
-1.67939e-08
1.12397e-05
-2.30567e-08
1.12449e-05
-2.7051e-08
1.12505e-05
-2.95804e-08
1.12561e-05
-3.11779e-08
1.12617e-05
-3.20747e-08
1.12671e-05
-3.24535e-08
1.12725e-05
-3.24701e-08
1.12776e-05
-3.22337e-08
1.12825e-05
-3.18171e-08
1.12872e-05
-3.12723e-08
1.12917e-05
-3.06374e-08
1.12959e-05
-2.99411e-08
1.12999e-05
-2.9205e-08
1.13037e-05
-2.8446e-08
1.13073e-05
-2.76767e-08
-2.6904e-08
1.13106e-05
1.0006e-05
-9.90665e-09
1.00097e-05
-2.04567e-08
1.00146e-05
-2.79377e-08
1.00197e-05
-3.22234e-08
1.0025e-05
-3.48571e-08
1.00303e-05
-3.647e-08
1.00355e-05
-3.72729e-08
1.00405e-05
-3.74928e-08
1.00454e-05
-3.7321e-08
1.005e-05
-3.68794e-08
1.00545e-05
-3.62475e-08
1.00587e-05
-3.54822e-08
1.00627e-05
-3.46258e-08
1.00664e-05
-3.37094e-08
1.007e-05
-3.27577e-08
1.00733e-05
-3.17912e-08
1.00765e-05
-3.08282e-08
-2.98844e-08
1.00795e-05
8.91406e-06
-1.08701e-08
8.91803e-06
-2.44217e-08
8.92306e-06
-3.29749e-08
8.92808e-06
-3.72392e-08
8.93309e-06
-3.98664e-08
8.93803e-06
-4.14115e-08
8.9428e-06
-4.20468e-08
8.94738e-06
-4.20653e-08
8.95174e-06
-4.16869e-08
8.9559e-06
-4.10363e-08
8.95985e-06
-4.01937e-08
8.96358e-06
-3.92182e-08
8.96711e-06
-3.8153e-08
8.97043e-06
-3.70298e-08
8.97355e-06
-3.58728e-08
8.97646e-06
-3.47025e-08
8.97917e-06
-3.35371e-08
-3.23927e-08
8.98167e-06
7.94096e-06
-1.11651e-08
7.94547e-06
-2.89294e-08
7.95052e-06
-3.80219e-08
7.95524e-06
-4.19588e-08
7.95993e-06
-4.45632e-08
7.9645e-06
-4.59782e-08
7.96883e-06
-4.63797e-08
7.97293e-06
-4.61599e-08
7.9768e-06
-4.55577e-08
7.98045e-06
-4.46926e-08
7.9839e-06
-4.36427e-08
7.98715e-06
-4.24664e-08
7.99021e-06
-4.1206e-08
7.99307e-06
-3.98916e-08
7.99574e-06
-3.85462e-08
7.99823e-06
-3.71905e-08
8.00054e-06
-3.58519e-08
-3.45745e-08
8.00272e-06
7.07291e-06
-9.74511e-09
7.07858e-06
-3.4602e-08
7.08338e-06
-4.28207e-08
7.08758e-06
-4.61575e-08
7.09182e-06
-4.88017e-08
7.0959e-06
-5.00594e-08
7.09973e-06
-5.02143e-08
7.10334e-06
-4.97628e-08
7.10672e-06
-4.89429e-08
7.1099e-06
-4.78666e-08
7.11287e-06
-4.66123e-08
7.11564e-06
-4.52391e-08
7.11822e-06
-4.37887e-08
7.12062e-06
-4.22888e-08
7.12283e-06
-4.07572e-08
7.12484e-06
-3.92043e-08
7.12663e-06
-3.76396e-08
-3.60693e-08
7.12813e-06
6.29709e-06
-4.31879e-09
6.30527e-06
-4.27818e-08
6.3101e-06
-4.76523e-08
6.31411e-06
-5.01702e-08
6.31792e-06
-5.26148e-08
6.32128e-06
-5.34222e-08
6.32426e-06
-5.31931e-08
6.32696e-06
-5.24634e-08
6.32943e-06
-5.14133e-08
6.33169e-06
-5.01284e-08
6.33376e-06
-4.868e-08
6.33565e-06
-4.71244e-08
6.33736e-06
-4.5501e-08
6.33891e-06
-4.38353e-08
6.34029e-06
-4.21407e-08
6.34151e-06
-4.04186e-08
6.34254e-06
-3.86727e-08
-3.69115e-08
6.34338e-06
5.60106e-06
9.51968e-09
5.61058e-06
-5.23023e-08
5.61458e-06
-5.16508e-08
5.61889e-06
-5.44844e-08
5.62274e-06
-5.64586e-08
5.62557e-06
-5.62567e-08
5.62756e-06
-5.51799e-08
5.62889e-06
-5.37919e-08
5.62968e-06
-5.22087e-08
5.63004e-06
-5.04831e-08
5.63002e-06
-4.86671e-08
5.6297e-06
-4.68023e-08
5.62912e-06
-4.49176e-08
5.62831e-06
-4.30304e-08
5.62732e-06
-4.11447e-08
5.62614e-06
-3.92418e-08
5.62473e-06
-3.72638e-08
-3.49513e-08
5.62277e-06
5.00884e-06
2.98359e-09
5.00511e-06
-4.85658e-08
4.99663e-06
-4.31707e-08
4.98994e-06
-4.77976e-08
4.98309e-06
-4.96127e-08
4.97569e-06
-4.88587e-08
4.9677e-06
-4.71897e-08
4.95912e-06
-4.52056e-08
4.94999e-06
-4.30805e-08
4.94041e-06
-4.09037e-08
4.93048e-06
-3.87371e-08
4.9203e-06
-3.66198e-08
4.90995e-06
-3.45745e-08
4.89954e-06
-3.26117e-08
4.88912e-06
-3.07305e-08
4.87879e-06
-2.891e-08
4.86861e-06
-2.70832e-08
-2.48157e-08
4.85847e-06
4.45953e-06
4.41097e-06
4.3678e-06
4.32e-06
4.27038e-06
4.22153e-06
4.17434e-06
4.12913e-06
4.08605e-06
4.04515e-06
4.00641e-06
3.96979e-06
3.93522e-06
3.9026e-06
3.87187e-06
3.84296e-06
3.81588e-06
3.79106e-06
1.65555e-08
-1.65556e-08
2.9644e-08
-1.30921e-08
3.45954e-08
-4.95382e-09
3.09697e-08
3.62408e-09
1.96035e-08
1.13649e-08
1.97615e-09
1.7626e-08
-2.03701e-08
2.23441e-08
-4.5855e-08
2.54834e-08
-7.34398e-08
2.75835e-08
-1.02524e-07
2.90825e-08
-1.32747e-07
3.02226e-08
-1.63874e-07
3.1126e-08
-1.95729e-07
3.18538e-08
-2.28168e-07
3.24381e-08
-2.61068e-07
3.28994e-08
-2.94321e-07
3.32535e-08
-3.27836e-07
3.35148e-08
-3.61533e-07
3.36967e-08
-3.95346e-07
3.38123e-08
-4.29219e-07
3.38733e-08
-4.63111e-07
3.3891e-08
-4.96986e-07
3.3875e-08
-5.3082e-07
3.38343e-08
-5.64597e-07
3.37763e-08
-5.98305e-07
3.37075e-08
-6.31939e-07
3.36332e-08
-6.65497e-07
3.35578e-08
-6.98983e-07
3.34847e-08
-7.32399e-07
3.34163e-08
-7.65754e-07
3.33547e-08
-7.99055e-07
3.33012e-08
-8.32312e-07
3.32568e-08
-8.65534e-07
3.32221e-08
-8.98731e-07
3.31979e-08
-9.31915e-07
3.31846e-08
-9.651e-07
3.31849e-08
-9.98307e-07
3.3207e-08
-1.03157e-06
3.3262e-08
-1.06492e-06
3.33488e-08
-1.09837e-06
3.34575e-08
-1.13196e-06
3.35816e-08
-1.16567e-06
3.37164e-08
-1.19953e-06
3.38583e-08
-1.23354e-06
3.40043e-08
-1.26769e-06
3.41516e-08
-1.30199e-06
3.4298e-08
-1.33643e-06
3.44412e-08
-1.37101e-06
3.45791e-08
-1.40572e-06
3.47098e-08
-1.44055e-06
3.48313e-08
-1.47549e-06
3.49419e-08
-1.51053e-06
3.50398e-08
-1.54565e-06
3.51234e-08
-1.58084e-06
3.51911e-08
-1.61608e-06
3.52413e-08
-1.65135e-06
3.52725e-08
-1.68664e-06
3.52832e-08
-1.72191e-06
3.5272e-08
-1.75714e-06
3.52377e-08
-1.79232e-06
3.5179e-08
-1.82742e-06
3.50947e-08
-1.8624e-06
3.49838e-08
-1.89725e-06
3.48451e-08
-1.93192e-06
3.46775e-08
-1.9664e-06
3.44801e-08
-2.00066e-06
3.42517e-08
-2.03465e-06
3.39915e-08
-2.06835e-06
3.36985e-08
-2.10172e-06
3.33719e-08
-2.13473e-06
3.30107e-08
-2.16734e-06
3.26141e-08
-2.19952e-06
3.21813e-08
-2.23123e-06
3.17112e-08
-2.26244e-06
3.12028e-08
-2.29309e-06
3.06553e-08
-2.32316e-06
3.00679e-08
-2.3526e-06
2.94399e-08
-2.38137e-06
2.87703e-08
-2.40943e-06
2.80584e-08
-2.43673e-06
2.73034e-08
-2.46324e-06
2.65044e-08
-2.4889e-06
2.56606e-08
-2.51367e-06
2.47716e-08
-2.53751e-06
2.38366e-08
-2.56036e-06
2.28555e-08
-2.58219e-06
2.18281e-08
-2.60294e-06
2.07544e-08
-2.62258e-06
1.96345e-08
-2.64105e-06
1.84686e-08
-2.6583e-06
1.72576e-08
-2.67431e-06
1.60026e-08
-2.68901e-06
1.4705e-08
-2.70238e-06
1.33668e-08
-2.71437e-06
1.19903e-08
-2.72494e-06
1.05777e-08
-2.73408e-06
9.1319e-09
-2.74173e-06
7.65575e-09
-2.74788e-06
6.15242e-09
-2.75251e-06
4.62488e-09
-2.75559e-06
3.07546e-09
-2.75709e-06
1.5046e-09
-2.757e-06
-8.89616e-11
-2.75532e-06
-1.68441e-09
-2.75205e-06
-3.26592e-09
-2.74721e-06
-4.84265e-09
-2.74079e-06
-6.41848e-09
-2.73279e-06
-7.99635e-09
-2.72321e-06
-9.57902e-09
-2.71204e-06
-1.11689e-08
-2.69927e-06
-1.27681e-08
-2.68489e-06
-1.43782e-08
-2.66889e-06
-1.6001e-08
-2.65125e-06
-1.76387e-08
-2.63196e-06
-1.92933e-08
-2.61099e-06
-2.09667e-08
-2.58833e-06
-2.26603e-08
-2.56396e-06
-2.43751e-08
-2.53784e-06
-2.61121e-08
-2.50997e-06
-2.78726e-08
-2.48031e-06
-2.96582e-08
-2.44884e-06
-3.14703e-08
-2.41554e-06
-3.33096e-08
-2.38036e-06
-3.51765e-08
-2.34329e-06
-3.70712e-08
-2.30429e-06
-3.89938e-08
-2.26335e-06
-4.0944e-08
-2.22043e-06
-4.29204e-08
-2.17551e-06
-4.49214e-08
-2.12856e-06
-4.69452e-08
-2.07957e-06
-4.899e-08
-2.02852e-06
-5.1053e-08
-1.97539e-06
-5.31314e-08
-1.92017e-06
-5.52216e-08
-1.86285e-06
-5.73194e-08
-1.80343e-06
-5.94198e-08
-1.74192e-06
-6.15171e-08
-1.67831e-06
-6.36063e-08
-1.61263e-06
-6.56841e-08
-1.54489e-06
-6.77423e-08
-1.47511e-06
-6.97708e-08
-1.40335e-06
-7.1766e-08
-1.32962e-06
-7.37242e-08
-1.25399e-06
-7.563e-08
-1.17651e-06
-7.74769e-08
-1.09724e-06
-7.92649e-08
-1.01627e-06
-8.09693e-08
-9.33673e-07
-8.25995e-08
-8.49539e-07
-8.41341e-08
-7.63976e-07
-8.55651e-08
-6.7709e-07
-8.68898e-08
-5.88997e-07
-8.80967e-08
-4.99814e-07
-8.91848e-08
-4.09646e-07
-9.0172e-08
-3.18601e-07
-9.10496e-08
-2.2693e-07
-9.16735e-08
-1.34478e-07
-9.24514e-08
-4.10087e-08
-9.34723e-08
5.22661e-08
-9.32792e-08
1.44269e-07
-9.20021e-08
2.35016e-07
-9.07462e-08
3.24536e-07
-8.952e-08
4.1278e-07
-8.82426e-08
4.99632e-07
-8.68541e-08
5.84952e-07
-8.53199e-08
6.68584e-07
-8.36312e-08
7.50365e-07
-8.17815e-08
8.30136e-07
-7.97703e-08
9.07738e-07
-7.76005e-08
9.83016e-07
-7.52759e-08
1.05581e-06
-7.27943e-08
1.12596e-06
-7.01468e-08
1.19327e-06
-6.73063e-08
1.25749e-06
-6.42202e-08
1.31827e-06
-6.07811e-08
1.37504e-06
-5.67749e-08
1.42674e-06
-5.17108e-08
1.47141e-06
-4.46713e-08
1.50409e-06
-3.26775e-08
1.51451e-06
-1.04172e-08
5.17864e-08
1.46272e-06
3.68979e-09
-2.02494e-08
-1.36489e-09
-8.04251e-09
-1.23768e-08
6.05528e-09
-2.71935e-08
1.84387e-08
-4.48019e-08
2.89711e-08
-6.4842e-08
3.7664e-08
-8.70403e-08
4.45407e-08
-1.11322e-07
4.97633e-08
-1.37431e-07
5.36925e-08
-1.65022e-07
5.66723e-08
-1.93766e-07
5.89666e-08
-2.23397e-07
6.07565e-08
-2.53703e-07
6.21607e-08
-2.84523e-07
6.32582e-08
-3.15728e-07
6.41041e-08
-3.47215e-07
6.47405e-08
-3.78901e-07
6.52014e-08
-4.10721e-07
6.55164e-08
-4.4262e-07
6.57113e-08
-4.74557e-07
6.58094e-08
-5.06498e-07
6.58314e-08
-5.38418e-07
6.57955e-08
-5.70302e-07
6.5718e-08
-6.02139e-07
6.56127e-08
-6.33923e-07
6.54917e-08
-6.65655e-07
6.5365e-08
-6.97338e-07
6.52408e-08
-7.28979e-07
6.51258e-08
-7.60588e-07
6.50255e-08
-7.92176e-07
6.4944e-08
-8.23759e-07
6.48843e-08
-8.5535e-07
6.48488e-08
-8.86966e-07
6.48392e-08
-9.18624e-07
6.48569e-08
-9.50342e-07
6.49031e-08
-9.82137e-07
6.49801e-08
-1.01402e-06
6.50913e-08
-1.046e-06
6.5239e-08
-1.07807e-06
6.542e-08
-1.11024e-06
6.56281e-08
-1.14251e-06
6.58571e-08
-1.1749e-06
6.61014e-08
-1.2074e-06
6.63558e-08
-1.24001e-06
6.66155e-08
-1.27273e-06
6.68761e-08
-1.30557e-06
6.71334e-08
-1.33851e-06
6.73832e-08
-1.37155e-06
6.76217e-08
-1.40469e-06
6.78453e-08
-1.43791e-06
6.80503e-08
-1.4712e-06
6.82333e-08
-1.50455e-06
6.8391e-08
-1.53794e-06
6.85202e-08
-1.57137e-06
6.86177e-08
-1.60481e-06
6.86807e-08
-1.63824e-06
6.87061e-08
-1.67165e-06
6.86914e-08
-1.70501e-06
6.86339e-08
-1.7383e-06
6.8531e-08
-1.7715e-06
6.83804e-08
-1.80459e-06
6.818e-08
-1.83753e-06
6.79274e-08
-1.87031e-06
6.76205e-08
-1.90289e-06
6.72574e-08
-1.93524e-06
6.68361e-08
-1.96735e-06
6.63546e-08
-1.99917e-06
6.5811e-08
-2.03067e-06
6.52037e-08
-2.06183e-06
6.4531e-08
-2.09261e-06
6.37909e-08
-2.12298e-06
6.29818e-08
-2.1529e-06
6.21019e-08
-2.18233e-06
6.11493e-08
-2.21125e-06
6.01222e-08
-2.23962e-06
5.9019e-08
-2.26739e-06
5.78379e-08
-2.29452e-06
5.65774e-08
-2.32099e-06
5.52355e-08
-2.34674e-06
5.38108e-08
-2.37174e-06
5.23015e-08
-2.39594e-06
5.07058e-08
-2.4193e-06
4.90224e-08
-2.44178e-06
4.72497e-08
-2.46333e-06
4.53866e-08
-2.48391e-06
4.34323e-08
-2.50347e-06
4.13861e-08
-2.52196e-06
3.92475e-08
-2.53934e-06
3.70167e-08
-2.55557e-06
3.46943e-08
-2.57059e-06
3.22816e-08
-2.58437e-06
2.97808e-08
-2.59686e-06
2.71946e-08
-2.60802e-06
2.45264e-08
-2.61781e-06
2.17804e-08
-2.62619e-06
1.89612e-08
-2.63313e-06
1.60743e-08
-2.6386e-06
1.31252e-08
-2.64257e-06
1.01201e-08
-2.64501e-06
7.06444e-09
-2.6459e-06
3.9618e-09
-2.6452e-06
8.11973e-10
-2.64293e-06
-2.36425e-09
-2.63908e-06
-5.53275e-09
-2.63366e-06
-8.68671e-09
-2.62666e-06
-1.18357e-08
-2.61809e-06
-1.49865e-08
-2.60794e-06
-1.81446e-08
-2.59621e-06
-2.13149e-08
-2.58287e-06
-2.45018e-08
-2.56793e-06
-2.77091e-08
-2.55137e-06
-3.09408e-08
-2.53317e-06
-3.42007e-08
-2.51331e-06
-3.74928e-08
-2.49179e-06
-4.08207e-08
-2.46857e-06
-4.41877e-08
-2.44363e-06
-4.75964e-08
-2.41695e-06
-5.10496e-08
-2.38852e-06
-5.45495e-08
-2.35829e-06
-5.80988e-08
-2.32625e-06
-6.17e-08
-2.29236e-06
-6.53551e-08
-2.25661e-06
-6.90655e-08
-2.21895e-06
-7.28322e-08
-2.17937e-06
-7.66557e-08
-2.13783e-06
-8.05361e-08
-2.0943e-06
-8.44719e-08
-2.04877e-06
-8.84601e-08
-2.00119e-06
-9.24966e-08
-1.95156e-06
-9.6577e-08
-1.89986e-06
-1.00697e-07
-1.84606e-06
-1.04853e-07
-1.79015e-06
-1.09038e-07
-1.73212e-06
-1.13247e-07
-1.67197e-06
-1.17469e-07
-1.60969e-06
-1.21693e-07
-1.5453e-06
-1.25907e-07
-1.4788e-06
-1.30101e-07
-1.41022e-06
-1.34271e-07
-1.33956e-06
-1.38397e-07
-1.26688e-06
-1.42457e-07
-1.1922e-06
-1.46444e-07
-1.11558e-06
-1.5035e-07
-1.03707e-06
-1.54144e-07
-9.56741e-07
-1.57809e-07
-8.74663e-07
-1.61346e-07
-7.90925e-07
-1.6471e-07
-7.05615e-07
-1.67911e-07
-6.18833e-07
-1.70917e-07
-5.30693e-07
-1.73704e-07
-4.41304e-07
-1.76276e-07
-3.50795e-07
-1.78602e-07
-2.59272e-07
-1.80704e-07
-1.66893e-07
-1.82548e-07
-7.36728e-08
-1.84267e-07
2.01982e-08
-1.85543e-07
1.13868e-07
-1.86119e-07
2.06839e-07
-1.86441e-07
2.99112e-07
-1.8555e-07
3.90497e-07
-1.83387e-07
4.80824e-07
-1.81072e-07
5.6991e-07
-1.78608e-07
6.57602e-07
-1.75933e-07
7.43745e-07
-1.72994e-07
8.28182e-07
-1.69756e-07
9.10759e-07
-1.66207e-07
9.91322e-07
-1.62343e-07
1.06972e-06
-1.5817e-07
1.14582e-06
-1.53697e-07
1.21947e-06
-1.48928e-07
1.29053e-06
-1.43861e-07
1.35886e-06
-1.38477e-07
1.42428e-06
-1.32728e-07
1.48657e-06
-1.26512e-07
1.54542e-06
-1.19626e-07
1.60033e-06
-1.11681e-07
1.65047e-06
-1.01847e-07
1.69433e-06
-8.85354e-08
1.72934e-06
-6.76819e-08
1.75041e-06
-3.14966e-08
4.23917e-08
1.7598e-06
-1.01312e-08
-1.01202e-08
-2.65283e-08
8.35287e-09
-4.45997e-08
2.41258e-08
-6.35017e-08
3.73401e-08
-8.32096e-08
4.86787e-08
-1.03858e-07
5.83118e-08
-1.25627e-07
6.6309e-08
-1.48653e-07
7.27895e-08
-1.72918e-07
7.7957e-08
-1.9829e-07
8.20432e-08
-2.24587e-07
8.52641e-08
-2.5163e-07
8.77986e-08
-2.79256e-07
8.97863e-08
-3.07331e-07
9.13333e-08
-3.35748e-07
9.2521e-08
-3.64421e-07
9.34136e-08
-3.93283e-07
9.40631e-08
-4.2228e-07
9.45132e-08
-4.5137e-07
9.48016e-08
-4.80521e-07
9.49607e-08
-5.0971e-07
9.50193e-08
-5.38917e-07
9.50024e-08
-5.68131e-07
9.49318e-08
-5.97345e-07
9.48263e-08
-6.26555e-07
9.47021e-08
-6.55763e-07
9.45727e-08
-6.84972e-07
9.44495e-08
-7.14188e-07
9.43416e-08
-7.43419e-07
9.42565e-08
-7.72674e-07
9.41999e-08
-8.01966e-07
9.41761e-08
-8.31305e-07
9.41883e-08
-8.60704e-07
9.42384e-08
-8.90174e-07
9.43278e-08
-9.19728e-07
9.44571e-08
-9.49374e-07
9.46266e-08
-9.79119e-07
9.48359e-08
-1.00896e-06
9.50836e-08
-1.03891e-06
9.53657e-08
-1.06896e-06
9.56767e-08
-1.09911e-06
9.60107e-08
-1.12937e-06
9.63613e-08
-1.15974e-06
9.67225e-08
-1.19021e-06
9.70882e-08
-1.22079e-06
9.74528e-08
-1.25147e-06
9.78103e-08
-1.28224e-06
9.81554e-08
-1.3131e-06
9.84826e-08
-1.34404e-06
9.87868e-08
-1.37505e-06
9.90628e-08
-1.40612e-06
9.93057e-08
-1.43724e-06
9.95109e-08
-1.4684e-06
9.96738e-08
-1.49957e-06
9.97898e-08
-1.53074e-06
9.98548e-08
-1.5619e-06
9.98646e-08
-1.59302e-06
9.98153e-08
-1.62409e-06
9.97033e-08
-1.65509e-06
9.95248e-08
-1.68598e-06
9.92765e-08
-1.71676e-06
9.89552e-08
-1.74739e-06
9.85576e-08
-1.77785e-06
9.80808e-08
-1.80811e-06
9.75217e-08
-1.83815e-06
9.68776e-08
-1.86794e-06
9.61456e-08
-1.89746e-06
9.53233e-08
-1.92666e-06
9.44078e-08
-1.95553e-06
9.33969e-08
-1.98402e-06
9.22877e-08
-2.01212e-06
9.10778e-08
-2.03978e-06
8.97646e-08
-2.06698e-06
8.83454e-08
-2.09367e-06
8.68177e-08
-2.11983e-06
8.51789e-08
-2.14542e-06
8.34264e-08
-2.1704e-06
8.15577e-08
-2.19473e-06
7.95701e-08
-2.21838e-06
7.7461e-08
-2.24131e-06
7.52279e-08
-2.26347e-06
7.2868e-08
-2.28483e-06
7.03789e-08
-2.30534e-06
6.77585e-08
-2.32496e-06
6.50046e-08
-2.34364e-06
6.21157e-08
-2.36135e-06
5.90905e-08
-2.37803e-06
5.5928e-08
-2.39364e-06
5.26282e-08
-2.40813e-06
4.91917e-08
-2.42147e-06
4.56202e-08
-2.43361e-06
4.19163e-08
-2.4445e-06
3.80838e-08
-2.4541e-06
3.41276e-08
-2.46237e-06
3.00532e-08
-2.46928e-06
2.58677e-08
-2.47478e-06
2.15787e-08
-2.47885e-06
1.71946e-08
-2.48146e-06
1.2724e-08
-2.48257e-06
8.17537e-09
-2.48216e-06
3.55493e-09
-2.48022e-06
-1.12932e-09
-2.47674e-06
-5.83716e-09
-2.47175e-06
-1.05319e-08
-2.46522e-06
-1.52162e-08
-2.45715e-06
-1.98983e-08
-2.44755e-06
-2.45868e-08
-2.43641e-06
-2.92891e-08
-2.42371e-06
-3.40121e-08
-2.40945e-06
-3.87622e-08
-2.39361e-06
-4.35452e-08
-2.37618e-06
-4.83671e-08
-2.35715e-06
-5.32337e-08
-2.33649e-06
-5.81509e-08
-2.31419e-06
-6.31238e-08
-2.29022e-06
-6.81574e-08
-2.26456e-06
-7.32558e-08
-2.23719e-06
-7.84228e-08
-2.20808e-06
-8.36618e-08
-2.1772e-06
-8.89767e-08
-2.14453e-06
-9.43706e-08
-2.11004e-06
-9.98461e-08
-2.0737e-06
-1.05406e-07
-2.03548e-06
-1.1105e-07
-1.99535e-06
-1.16782e-07
-1.95329e-06
-1.22599e-07
-1.90926e-06
-1.285e-07
-1.86324e-06
-1.34481e-07
-1.8152e-06
-1.40534e-07
-1.76513e-06
-1.46652e-07
-1.713e-06
-1.52829e-07
-1.65879e-06
-1.59058e-07
-1.6025e-06
-1.6533e-07
-1.54411e-06
-1.71638e-07
-1.48362e-06
-1.77963e-07
-1.42102e-06
-1.84287e-07
-1.35634e-06
-1.90593e-07
-1.28957e-06
-1.96866e-07
-1.22075e-06
-2.03097e-07
-1.14988e-06
-2.0926e-07
-1.07702e-06
-2.15318e-07
-1.00221e-06
-2.21257e-07
-9.25487e-07
-2.2707e-07
-8.46922e-07
-2.32708e-07
-7.6659e-07
-2.38142e-07
-6.8456e-07
-2.43375e-07
-6.00928e-07
-2.48343e-07
-5.15791e-07
-2.53048e-07
-4.2925e-07
-2.57459e-07
-3.41431e-07
-2.61524e-07
-2.52439e-07
-2.65268e-07
-1.62419e-07
-2.68622e-07
-7.14608e-08
-2.71664e-07
2.02212e-08
-2.7423e-07
1.12084e-07
-2.7613e-07
2.0378e-07
-2.77239e-07
2.95136e-07
-2.77475e-07
3.85771e-07
-2.77076e-07
4.75672e-07
-2.75451e-07
5.64867e-07
-2.72582e-07
6.53034e-07
-2.69239e-07
7.39926e-07
-2.655e-07
8.25344e-07
-2.61351e-07
9.09113e-07
-2.56762e-07
9.91068e-07
-2.51712e-07
1.07106e-06
-2.46196e-07
1.14893e-06
-2.40219e-07
1.22456e-06
-2.33795e-07
1.2978e-06
-2.26941e-07
1.36854e-06
-2.19665e-07
1.43665e-06
-2.11966e-07
1.50199e-06
-2.03819e-07
1.56442e-06
-1.95156e-07
1.62374e-06
-1.85834e-07
1.67969e-06
-1.75577e-07
1.73187e-06
-1.63861e-07
1.77967e-06
-1.49647e-07
1.82214e-06
-1.31011e-07
1.85818e-06
-1.0372e-07
1.88707e-06
-6.03893e-08
1.36952e-08
1.91577e-06
-1.87149e-08
8.59298e-09
-4.02066e-08
2.98443e-08
-6.16118e-08
4.5531e-08
-8.28131e-08
5.85412e-08
-1.03941e-07
6.98068e-08
-1.25207e-07
7.9577e-08
-1.46836e-07
8.79378e-08
-1.69012e-07
9.49657e-08
-1.91831e-07
1.00776e-07
-2.15303e-07
1.05516e-07
-2.39381e-07
1.09342e-07
-2.63986e-07
1.12403e-07
-2.89031e-07
1.14832e-07
-3.14436e-07
1.16738e-07
-3.40128e-07
1.18213e-07
-3.66046e-07
1.19332e-07
-3.92144e-07
1.2016e-07
-4.1838e-07
1.2075e-07
-4.44725e-07
1.21147e-07
-4.71156e-07
1.21391e-07
-4.97654e-07
1.21517e-07
-5.24206e-07
1.21554e-07
-5.50803e-07
1.2153e-07
-5.77441e-07
1.21464e-07
-6.04118e-07
1.21379e-07
-6.30833e-07
1.21288e-07
-6.57589e-07
1.21206e-07
-6.84392e-07
1.21144e-07
-7.11246e-07
1.21111e-07
-7.38158e-07
1.21113e-07
-7.65137e-07
1.21155e-07
-7.9219e-07
1.21242e-07
-8.19326e-07
1.21374e-07
-8.46551e-07
1.21554e-07
-8.73873e-07
1.2178e-07
-9.01298e-07
1.22051e-07
-9.28827e-07
1.22366e-07
-9.56464e-07
1.2272e-07
-9.84209e-07
1.2311e-07
-1.01206e-06
1.2353e-07
-1.04002e-06
1.23972e-07
-1.06809e-06
1.24431e-07
-1.09627e-06
1.24899e-07
-1.12455e-06
1.2537e-07
-1.15293e-06
1.25835e-07
-1.18141e-06
1.2629e-07
-1.20998e-06
1.26726e-07
-1.23864e-06
1.27136e-07
-1.26737e-06
1.27516e-07
-1.29616e-06
1.27857e-07
-1.32501e-06
1.28154e-07
-1.3539e-06
1.284e-07
-1.38281e-06
1.28591e-07
-1.41174e-06
1.2872e-07
-1.44067e-06
1.28782e-07
-1.46958e-06
1.28772e-07
-1.49845e-06
1.28684e-07
-1.52726e-06
1.28514e-07
-1.55599e-06
1.28258e-07
-1.58462e-06
1.2791e-07
-1.61314e-06
1.27467e-07
-1.6415e-06
1.26925e-07
-1.6697e-06
1.26279e-07
-1.69771e-06
1.25527e-07
-1.72549e-06
1.24664e-07
-1.75303e-06
1.23687e-07
-1.7803e-06
1.22593e-07
-1.80727e-06
1.21377e-07
-1.83391e-06
1.20038e-07
-1.8602e-06
1.18571e-07
-1.88609e-06
1.16974e-07
-1.91157e-06
1.15242e-07
-1.9366e-06
1.13373e-07
-1.96114e-06
1.11364e-07
-1.98518e-06
1.0921e-07
-2.00866e-06
1.06909e-07
-2.03156e-06
1.04457e-07
-2.05384e-06
1.0185e-07
-2.07546e-06
9.90856e-08
-2.09639e-06
9.61593e-08
-2.11659e-06
9.30679e-08
-2.13602e-06
8.98079e-08
-2.15464e-06
8.6376e-08
-2.1724e-06
8.27694e-08
-2.18927e-06
7.89855e-08
-2.20521e-06
7.5022e-08
-2.22016e-06
7.08777e-08
-2.23408e-06
6.65518e-08
-2.24693e-06
6.2045e-08
-2.25867e-06
5.73589e-08
-2.26925e-06
5.24967e-08
-2.27863e-06
4.74627e-08
-2.28676e-06
4.22629e-08
-2.29362e-06
3.69047e-08
-2.29914e-06
3.13969e-08
-2.30332e-06
2.57495e-08
-2.30609e-06
1.99736e-08
-2.30745e-06
1.40808e-08
-2.30736e-06
8.08188e-09
-2.30579e-06
1.98542e-09
-2.30274e-06
-4.17692e-09
-2.29822e-06
-1.03542e-08
-2.29223e-06
-1.65225e-08
-2.28476e-06
-2.26844e-08
-2.27581e-06
-2.88485e-08
-2.26538e-06
-3.50243e-08
-2.25344e-06
-4.12214e-08
-2.24001e-06
-4.74483e-08
-2.22506e-06
-5.37134e-08
-2.20858e-06
-6.00246e-08
-2.19055e-06
-6.63898e-08