/*--------------------------------*- C++ -*----------------------------------*\
| =========                 |                                                 |
| \\      /  F ield         | OpenFOAM: The Open Source CFD Toolbox           |
|  \\    /   O peration     | Version:  2.2.x                                 |
|   \\  /    A nd           | Web:      www.OpenFOAM.org                      |
|    \\/     M anipulation  |                                                 |
\*---------------------------------------------------------------------------*/
FoamFile
{
    version     2.0;
    format      ascii;
    class       volVectorField;
    location    "600";
    object      U;
}
// * * * * * * * * * * * * * * * * * * * * * * * * * * * * * * * * * * * * * //

dimensions      [0 1 -1 0 0 0 0];

internalField   nonuniform List<vector> 
12225
(
(9.83972 -1.23842 0)
(9.73872 -0.73149 0)
(9.53699 -0.467336 0)
(9.32319 -0.307409 0)
(9.1244 -0.205961 0)
(8.94082 -0.139601 0)
(8.77074 -0.0949569 0)
(8.61338 -0.0642682 0)
(8.46797 -0.0428329 0)
(8.3336 -0.0276747 0)
(8.20933 -0.0168521 0)
(8.0943 -0.00907079 0)
(7.98777 -0.00345065 0)
(7.88902 0.00062171 0)
(7.79734 0.00360547 0)
(7.71187 0.00603193 0)
(7.62673 0.0094696 0)
(7.56171 -0.0194287 0)
(10.0335 0.447389 0)
(10.0226 0.426929 0)
(9.98834 0.340231 0)
(9.94295 0.270973 0)
(9.8966 0.217796 0)
(9.84856 0.177206 0)
(9.79814 0.146649 0)
(9.74603 0.123658 0)
(9.69311 0.106208 0)
(9.64006 0.0928091 0)
(9.58737 0.0823895 0)
(9.53545 0.074177 0)
(9.48465 0.0676139 0)
(9.43519 0.0623073 0)
(9.38726 0.0580269 0)
(9.34103 0.0549026 0)
(9.29802 0.0541281 0)
(9.2637 0.0680566 0)
(9.9929 0.0267764 0)
(10.0022 -0.00877493 0)
(10.0178 -0.0275897 0)
(10.0247 -0.0224587 0)
(10.0278 -0.0111009 0)
(10.0282 0.000210938 0)
(10.0255 0.0102843 0)
(10.0204 0.0188122 0)
(10.0136 0.0257615 0)
(10.0055 0.0312761 0)
(9.99638 0.0355668 0)
(9.98657 0.0388444 0)
(9.97628 0.0412973 0)
(9.96569 0.0430983 0)
(9.95501 0.0444379 0)
(9.94459 0.0456038 0)
(9.9356 0.0467471 0)
(9.92832 0.0447378 0)
(9.99998 0.0196729 0)
(10.0123 0.0433471 0)
(10.0308 0.0556634 0)
(10.0411 0.0652635 0)
(10.0483 0.0706252 0)
(10.0544 0.0723512 0)
(10.0592 0.0721197 0)
(10.0629 0.0709619 0)
(10.0659 0.0693683 0)
(10.0684 0.0675944 0)
(10.0704 0.0657807 0)
(10.0721 0.0639971 0)
(10.0735 0.0622724 0)
(10.0747 0.0606187 0)
(10.076 0.0590494 0)
(10.0774 0.057564 0)
(10.0798 0.0558933 0)
(10.0832 0.0523859 0)
(10.0023 0.0186688 0)
(10.0144 0.0407905 0)
(10.0302 0.0467923 0)
(10.0404 0.0491642 0)
(10.0485 0.050557 0)
(10.0561 0.051074 0)
(10.063 0.0512308 0)
(10.0691 0.051324 0)
(10.0747 0.0513947 0)
(10.0799 0.051416 0)
(10.0848 0.051362 0)
(10.0895 0.0512117 0)
(10.0939 0.050947 0)
(10.0982 0.0505508 0)
(10.1026 0.049998 0)
(10.1071 0.0492055 0)
(10.112 0.0478588 0)
(10.1171 0.0449786 0)
(10.0025 0.0189106 0)
(10.0131 0.0369739 0)
(10.0269 0.0431797 0)
(10.0373 0.0464827 0)
(10.0459 0.0491805 0)
(10.0539 0.0509664 0)
(10.0614 0.0520324 0)
(10.0682 0.052652 0)
(10.0745 0.0529491 0)
(10.0805 0.0529808 0)
(10.0861 0.0527876 0)
(10.0916 0.0523975 0)
(10.0969 0.0518239 0)
(10.1022 0.051063 0)
(10.1074 0.0500831 0)
(10.1126 0.0487861 0)
(10.118 0.0469308 0)
(10.1235 0.0440602 0)
(10.0022 0.01661 0)
(10.0111 0.0316996 0)
(10.0232 0.0386612 0)
(10.0334 0.0426167 0)
(10.0421 0.0455348 0)
(10.0502 0.0474058 0)
(10.0578 0.0484638 0)
(10.0648 0.0490167 0)
(10.0714 0.0492317 0)
(10.0776 0.0491876 0)
(10.0836 0.0489297 0)
(10.0894 0.0484825 0)
(10.0951 0.0478512 0)
(10.1006 0.0470208 0)
(10.106 0.0459476 0)
(10.1114 0.0445385 0)
(10.1168 0.0426276 0)
(10.122 0.0400079 0)
(10.0019 0.0146557 0)
(10.0095 0.0280418 0)
(10.0202 0.0353047 0)
(10.0299 0.039528 0)
(10.0384 0.0424991 0)
(10.0464 0.0444415 0)
(10.054 0.0455901 0)
(10.0611 0.0462203 0)
(10.0677 0.0464926 0)
(10.0741 0.0464859 0)
(10.0802 0.0462443 0)
(10.0861 0.0457911 0)
(10.0918 0.0451312 0)
(10.0974 0.0442495 0)
(10.1029 0.0431071 0)
(10.1082 0.041633 0)
(10.1134 0.039724 0)
(10.1184 0.0373057 0)
(10.0017 0.0130687 0)
(10.0083 0.0250772 0)
(10.0178 0.0322357 0)
(10.0268 0.0365544 0)
(10.0351 0.039553 0)
(10.043 0.0415456 0)
(10.0504 0.0427583 0)
(10.0575 0.0434369 0)
(10.0642 0.0437359 0)
(10.0705 0.0437366 0)
(10.0767 0.0434861 0)
(10.0826 0.0430095 0)
(10.0884 0.0423135 0)
(10.0939 0.0413864 0)
(10.0994 0.0401976 0)
(10.1046 0.0386966 0)
(10.1096 0.0368217 0)
(10.1144 0.0345668 0)
(10.0015 0.0115112 0)
(10.0071 0.0221181 0)
(10.0154 0.0289582 0)
(10.0238 0.0332726 0)
(10.0316 0.0362617 0)
(10.0392 0.038275 0)
(10.0465 0.0395288 0)
(10.0534 0.0402405 0)
(10.06 0.0405567 0)
(10.0664 0.0405604 0)
(10.0725 0.0403005 0)
(10.0784 0.0398041 0)
(10.0841 0.0390805 0)
(10.0896 0.0381236 0)
(10.0949 0.0369136 0)
(10.1 0.0354207 0)
(10.1049 0.0336172 0)
(10.1095 0.0315361 0)
(10.0013 0.00995942 0)
(10.006 0.019163 0)
(10.0132 0.025522 0)
(10.0208 0.029713 0)
(10.0281 0.0326237 0)
(10.0353 0.0346039 0)
(10.0423 0.0358584 0)
(10.0491 0.0365759 0)
(10.0555 0.0368915 0)
(10.0618 0.0368872 0)
(10.0678 0.0366125 0)
(10.0736 0.0360963 0)
(10.0792 0.0353516 0)
(10.0846 0.0343791 0)
(10.0898 0.0331708 0)
(10.0947 0.0317159 0)
(10.0994 0.0300113 0)
(10.1038 0.0281073 0)
(10.0011 0.00842591 0)
(10.005 0.0162498 0)
(10.0111 0.0219745 0)
(10.018 0.0259066 0)
(10.0248 0.0286563 0)
(10.0315 0.0305412 0)
(10.0382 0.0317486 0)
(10.0446 0.0324385 0)
(10.0509 0.0327313 0)
(10.057 0.0327049 0)
(10.0628 0.0324087 0)
(10.0684 0.0318732 0)
(10.0739 0.0311154 0)
(10.0791 0.0301435 0)
(10.0841 0.0289605 0)
(10.0888 0.0275703 0)
(10.0933 0.0259854 0)
(10.0975 0.0242606 0)
(10.0009 0.00692603 0)
(10.0042 0.0133977 0)
(10.0094 0.0183509 0)
(10.0154 0.0218818 0)
(10.0217 0.0243765 0)
(10.0279 0.0260943 0)
(10.0342 0.027198 0)
(10.0403 0.0278196 0)
(10.0463 0.0280621 0)
(10.0521 0.0279968 0)
(10.0577 0.0276711 0)
(10.0632 0.0271167 0)
(10.0684 0.0263545 0)
(10.0734 0.0253989 0)
(10.0781 0.0242616 0)
(10.0827 0.0229562 0)
(10.0869 0.0215031 0)
(10.091 0.0199543 0)
(10.0008 0.00546614 0)
(10.0035 0.0106077 0)
(10.0079 0.0146765 0)
(10.0132 0.017667 0)
(10.0189 0.0198016 0)
(10.0247 0.0212704 0)
(10.0305 0.022205 0)
(10.0363 0.0227103 0)
(10.042 0.0228703 0)
(10.0475 0.0227467 0)
(10.0528 0.022383 0)
(10.058 0.0218106 0)
(10.063 0.0210528 0)
(10.0677 0.020128 0)
(10.0723 0.0190532 0)
(10.0766 0.0178468 0)
(10.0806 0.0165317 0)
(10.0844 0.0151534 0)
(10.0006 0.0040418 0)
(10.003 0.00786477 0)
(10.0067 0.0109581 0)
(10.0114 0.0132788 0)
(10.0165 0.0149417 0)
(10.0218 0.0160712 0)
(10.0272 0.0167639 0)
(10.0326 0.017098 0)
(10.038 0.0171375 0)
(10.0432 0.0169321 0)
(10.0483 0.0165191 0)
(10.0532 0.0159274 0)
(10.0579 0.0151797 0)
(10.0624 0.0142959 0)
(10.0667 0.0132944 0)
(10.0708 0.0121944 0)
(10.0746 0.0110175 0)
(10.0783 0.00980148 0)
(10.0006 0.00263554 0)
(10.0025 0.0051334 0)
(10.0058 0.00717144 0)
(10.0099 0.00870422 0)
(10.0145 0.00978274 0)
(10.0194 0.0104777 0)
(10.0245 0.0108506 0)
(10.0295 0.0109531 0)
(10.0346 0.010829 0)
(10.0395 0.010514 0)
(10.0443 0.0100366 0)
(10.049 0.00941997 0)
(10.0535 0.00868381 0)
(10.0578 0.00784581 0)
(10.0618 0.00692278 0)
(10.0657 0.00593153 0)
(10.0693 0.00489005 0)
(10.0729 0.00382866 0)
(10.0005 0.0012151 0)
(10.0022 0.0023537 0)
(10.0052 0.00325601 0)
(10.0089 0.00389133 0)
(10.0131 0.00427649 0)
(10.0177 0.00444162 0)
(10.0224 0.00441559 0)
(10.0272 0.00422426 0)
(10.0319 0.00389058 0)
(10.0366 0.00343431 0)
(10.0412 0.00287225 0)
(10.0457 0.00221912 0)
(10.0499 0.00148826 0)
(10.054 0.000692234 0)
(10.0579 -0.000156773 0)
(10.0616 -0.00104661 0)
(10.0651 -0.00196437 0)
(10.0685 -0.00288692 0)
(10.0005 -0.000183517 0)
(10.0021 -0.000395683 0)
(10.0049 -0.000650246 0)
(10.0084 -0.000954804 0)
(10.0125 -0.00131084 0)
(10.0168 -0.00172011 0)
(10.0213 -0.00218339 0)
(10.0259 -0.00269949 0)
(10.0305 -0.00326594 0)
(10.0351 -0.00387953 0)
(10.0395 -0.00453639 0)
(10.0438 -0.00523218 0)
(10.0479 -0.0059619 0)
(10.0518 -0.00671998 0)
(10.0556 -0.00750035 0)
(10.0592 -0.00829646 0)
(10.0625 -0.0091008 0)
(10.0658 -0.00989709 0)
(10.0005 -0.00147619 0)
(10.0021 -0.00294559 0)
(10.0049 -0.00428423 0)
(10.0085 -0.00546821 0)
(10.0125 -0.00651388 0)
(10.0169 -0.00745505 0)
(10.0214 -0.0083213 0)
(10.0259 -0.00913458 0)
(10.0305 -0.00991197 0)
(10.035 -0.0106666 0)
(10.0393 -0.011408 0)
(10.0435 -0.0121421 0)
(10.0476 -0.0128724 0)
(10.0514 -0.0136005 0)
(10.0551 -0.0143263 0)
(10.0586 -0.0150487 0)
(10.062 -0.0157648 0)
(10.0652 -0.0164642 0)
(10.0005 -0.00266322 0)
(10.0022 -0.00530137 0)
(10.0052 -0.00763807 0)
(10.0089 -0.00960396 0)
(10.0132 -0.0112431 0)
(10.0177 -0.0126324 0)
(10.0223 -0.0138311 0)
(10.0269 -0.0148828 0)
(10.0315 -0.0158234 0)
(10.036 -0.0166814 0)
(10.0403 -0.0174781 0)
(10.0445 -0.0182287 0)
(10.0486 -0.0189443 0)
(10.0524 -0.0196327 0)
(10.0561 -0.0202991 0)
(10.0596 -0.020947 0)
(10.0628 -0.0215773 0)
(10.0661 -0.0221835 0)
(10.0005 -0.00378859 0)
(10.0024 -0.00757732 0)
(10.0057 -0.010869 0)
(10.0098 -0.0135276 0)
(10.0143 -0.0156664 0)
(10.019 -0.0174258 0)
(10.0238 -0.018893 0)
(10.0286 -0.0201316 0)
(10.0333 -0.0211963 0)
(10.0378 -0.0221306 0)
(10.0422 -0.0229661 0)
(10.0465 -0.0237259 0)
(10.0505 -0.024427 0)
(10.0544 -0.0250823 0)
(10.0581 -0.0257017 0)
(10.0615 -0.0262928 0)
(10.0648 -0.0268608 0)
(10.068 -0.0274046 0)
(10.0005 -0.00485511 0)
(10.0026 -0.00984989 0)
(10.0063 -0.0140797 0)
(10.0109 -0.0173223 0)
(10.0158 -0.0198489 0)
(10.0208 -0.0218854 0)
(10.0258 -0.0235392 0)
(10.0308 -0.0248922 0)
(10.0356 -0.0260186 0)
(10.0403 -0.0269751 0)
(10.0447 -0.0278018 0)
(10.049 -0.0285282 0)
(10.0531 -0.0291768 0)
(10.057 -0.0297653 0)
(10.0607 -0.0303074 0)
(10.0641 -0.0308143 0)
(10.0674 -0.0312942 0)
(10.0706 -0.0317482 0)
(10.0005 -0.00582961 0)
(10.0027 -0.012196 0)
(10.0071 -0.0173699 0)
(10.0123 -0.0210983 0)
(10.0177 -0.0239462 0)
(10.023 -0.0262149 0)
(10.0282 -0.028019 0)
(10.0334 -0.0294677 0)
(10.0383 -0.0306574 0)
(10.0431 -0.0316529 0)
(10.0476 -0.0324974 0)
(10.0519 -0.0332222 0)
(10.056 -0.0338519 0)
(10.0599 -0.0344059 0)
(10.0636 -0.0349006 0)
(10.067 -0.0353513 0)
(10.0703 -0.0357729 0)
(10.0734 -0.0361783 0)
(10.0002 -0.00663693 0)
(10.0027 -0.0146643 0)
(10.0079 -0.0205768 0)
(10.0139 -0.0245148 0)
(10.0196 -0.0275373 0)
(10.0252 -0.0299062 0)
(10.0306 -0.0317026 0)
(10.0359 -0.0330805 0)
(10.0409 -0.0341735 0)
(10.0457 -0.0350623 0)
(10.0502 -0.0357975 0)
(10.0546 -0.0364152 0)
(10.0586 -0.0369415 0)
(10.0625 -0.037396 0)
(10.0661 -0.0377945 0)
(10.0695 -0.0381518 0)
(10.0726 -0.0384823 0)
(10.0756 -0.0387974 0)
(9.99982 -0.00723073 0)
(10.0024 -0.0181451 0)
(10.0087 -0.0247044 0)
(10.0154 -0.0286314 0)
(10.0213 -0.0319117 0)
(10.0271 -0.0346223 0)
(10.0327 -0.0367178 0)
(10.0381 -0.0383386 0)
(10.0431 -0.0396103 0)
(10.0478 -0.0406082 0)
(10.0523 -0.0413872 0)
(10.0565 -0.0419921 0)
(10.0605 -0.0424582 0)
(10.0642 -0.0428133 0)
(10.0677 -0.0430797 0)
(10.0709 -0.0432795 0)
(10.074 -0.0434414 0)
(10.0769 -0.0436096 0)
(9.99841 -0.00502124 0)
(10.0007 -0.0202931 0)
(10.0088 -0.027111 0)
(10.016 -0.0298198 0)
(10.0218 -0.0317678 0)
(10.0276 -0.0332718 0)
(10.0332 -0.034471 0)
(10.0385 -0.0355473 0)
(10.0434 -0.0365607 0)
(10.0481 -0.0375071 0)
(10.0524 -0.0383764 0)
(10.0565 -0.0391641 0)
(10.0602 -0.0398674 0)
(10.0638 -0.0404846 0)
(10.067 -0.0410151 0)
(10.07 -0.0414608 0)
(10.0727 -0.0418328 0)
(10.0751 -0.0421577 0)
(9.99479 -0.0031884 0)
(9.99583 -0.0256821 0)
(10.0072 -0.0394705 0)
(10.0157 -0.0487378 0)
(10.0217 -0.0546469 0)
(10.0272 -0.0576247 0)
(10.0322 -0.0587733 0)
(10.0367 -0.0589446 0)
(10.0408 -0.058584 0)
(10.0446 -0.0579297 0)
(10.048 -0.0571272 0)
(10.0511 -0.0562655 0)
(10.054 -0.0553948 0)
(10.0566 -0.0545386 0)
(10.0589 -0.0537021 0)
(10.061 -0.0528771 0)
(10.0627 -0.0520578 0)
(10.0643 -0.0512529 0)
(9.98519 0.00576602 0)
(9.98187 0.0248649 0)
(9.9941 0.0365078 0)
(10.0036 0.0321345 0)
(10.0108 0.0223 0)
(10.0167 0.0122775 0)
(10.0211 0.00311809 0)
(10.024 -0.00498333 0)
(10.0258 -0.0119574 0)
(10.0268 -0.0178459 0)
(10.0271 -0.0227616 0)
(10.0268 -0.026836 0)
(10.026 -0.0301927 0)
(10.0247 -0.0329379 0)
(10.0231 -0.035154 0)
(10.0212 -0.0368915 0)
(10.0189 -0.0381661 0)
(10.0159 -0.0388729 0)
(10.0137 -0.317342 0)
(10.0102 -0.326327 0)
(9.99894 -0.271525 0)
(9.98282 -0.224893 0)
(9.96833 -0.188171 0)
(9.95435 -0.158846 0)
(9.93924 -0.135777 0)
(9.9227 -0.117768 0)
(9.90495 -0.103648 0)
(9.88621 -0.0924852 0)
(9.86668 -0.0835844 0)
(9.84654 -0.0764247 0)
(9.82598 -0.0706116 0)
(9.8052 -0.0658422 0)
(9.78434 -0.0618761 0)
(9.76356 -0.0585016 0)
(9.74306 -0.05549 0)
(9.72218 -0.0522253 0)
(9.95412 0.913092 0)
(9.95406 0.561002 0)
(9.86626 0.375415 0)
(9.75289 0.258525 0)
(9.63882 0.180488 0)
(9.52771 0.126933 0)
(9.41983 0.0891655 0)
(9.31597 0.0619581 0)
(9.21677 0.0420699 0)
(9.12247 0.02738 0)
(9.03309 0.0164446 0)
(8.94853 0.00825749 0)
(8.86865 0.00210518 0)
(8.79327 -0.00252486 0)
(8.72221 -0.00600267 0)
(8.65528 -0.00858861 0)
(8.59255 -0.0104276 0)
(8.53208 -0.0113641 0)
(0.00858671 -0.0219634 0)
(0.0214975 -0.021806 0)
(0.0297438 -0.0132584 0)
(0.0308562 -0.00222166 0)
(0.0240392 0.00892367 0)
(0.0113405 0.0184768 0)
(-0.00738047 0.0256409 -2.95021e-19)
(-0.0287935 0.0293627 2.54034e-19)
(-0.0524407 0.0312156 0)
(-0.0776752 0.0322354 1.91853e-19)
(-0.10407 0.0328767 0)
(-0.131378 0.0333149 0)
(-0.159427 0.0336124 0)
(-0.18808 0.0337924 -1.25577e-19)
(-0.217223 0.0338675 0)
(-0.246754 0.033849 0)
(-0.276585 0.0337495 9.91985e-20)
(-0.306641 0.0335818 0)
(-0.336858 0.0333587 0)
(-0.367183 0.0330924 0)
(-0.397573 0.0327937 -7.76542e-20)
(-0.427996 0.0324721 0)
(-0.458425 0.0321358 -7.01935e-20)
(-0.488842 0.0317914 0)
(-0.519237 0.0314444 0)
(-0.549601 0.0310987 -6.15277e-20)
(-0.579932 0.0307573 0)
(-0.610231 0.0304223 5.69522e-20)
(-0.640502 0.0300947 0)
(-0.670751 0.0297753 -5.30794e-20)
(-0.700984 0.0294641 0)
(-0.73121 0.0291613 0)
(-0.761436 0.0288671 0)
(-0.791672 0.028582 0)
(-0.821932 0.0283085 0)
(-0.852237 0.0280541 4.43416e-20)
(-0.882584 0.0278319 0)
(-0.912984 0.0276527 -8.41748e-20)
(-0.943504 0.027512 0)
(-0.974155 0.027395 8.01302e-20)
(-1.00495 0.027294 0)
(-1.03591 0.0272041 0)
(-1.06704 0.0271219 -7.47892e-20)
(-1.09834 0.0270443 0)
(-1.12982 0.0269691 -7.16304e-20)
(-1.16148 0.0268944 7.0155e-20)
(-1.19332 0.0268181 0)
(-1.22533 0.0267389 6.739e-20)
(-1.25751 0.0266551 6.60926e-20)
(-1.28986 0.0265655 0)
(-1.32235 0.0264689 0)
(-1.355 0.026364 0)
(-1.38777 0.0262499 0)
(-1.42067 0.0261255 0)
(-1.45368 0.0259899 -5.93017e-20)
(-1.48677 0.0258423 0)
(-1.51994 0.0256818 5.73549e-20)
(-1.55316 0.0255078 0)
(-1.58642 0.0253197 0)
(-1.61969 0.0251169 -5.46728e-20)
(-1.65296 0.024899 0)
(-1.68619 0.0246654 5.30225e-20)
(-1.71937 0.0244159 0)
(-1.75247 0.0241501 0)
(-1.78546 0.0238675 0)
(-1.81831 0.0235678 -4.99952e-20)
(-1.851 0.0232509 0)
(-1.8835 0.0229164 0)
(-1.91577 0.0225642 -4.79179e-20)
(-1.94779 0.0221941 0)
(-1.97952 0.021806 -4.66051e-20)
(-2.01093 0.0213996 0)
(-2.04199 0.0209747 0)
(-2.07266 0.0205311 0)
(-2.10291 0.0200687 4.4108e-20)
(-2.13269 0.0195872 0)
(-2.16197 0.0190867 0)
(-2.19072 0.0185671 4.23109e-20)
(-2.21889 0.0180283 4.17204e-20)
(-2.24644 0.0174702 0)
(-2.27333 0.0168927 4.05455e-20)
(-2.29953 0.016296 0)
(-2.32497 0.01568 7.8744e-20)
(-2.34963 0.0150448 0)
(-2.37346 0.0143909 7.63826e-20)
(-2.39641 0.0137185 0)
(-2.41844 0.0130281 -7.39903e-20)
(-2.4395 0.01232 0)
(-2.45955 0.0115949 0)
(-2.47854 0.0108536 0)
(-2.49643 0.0100972 6.90472e-20)
(-2.51318 0.00932669 0)
(-2.52874 0.00854359 -6.64635e-20)
(-2.54307 0.00774927 0)
(-2.55614 0.00694522 6.37832e-20)
(-2.56791 0.00613302 6.24018e-20)
(-2.57835 0.00531425 6.09902e-20)
(-2.58742 0.00449047 0)
(-2.59511 0.00366311 0)
(-2.60138 0.00283307 0)
(-2.60621 0.00200007 0)
(-2.60957 0.00116571 0)
(-2.61144 0.000343423 0)
(-2.61183 -0.000461639 0)
(-2.61076 -0.00125642 0)
(-2.6082 -0.00204311 -4.65013e-20)
(-2.60417 -0.00282342 -4.46519e-20)
(-2.59864 -0.00359892 0)
(-2.59162 -0.00437104 0)
(-2.58308 -0.00514097 0)
(-2.57301 -0.00590982 -3.66896e-20)
(-2.5614 -0.00667876 0)
(-2.54823 -0.00744905 0)
(-2.53348 -0.00822194 0)
(-2.51712 -0.00899854 0)
(-2.49913 -0.00977983 2.52456e-20)
(-2.47948 -0.0105666 0)
(-2.45814 -0.0113598 0)
(-2.43509 -0.0121603 -1.741e-20)
(-2.4103 -0.0129693 1.46096e-20)
(-2.38374 -0.013788 0)
(-2.35536 -0.0146172 8.69308e-21)
(-2.32514 -0.0154574 0)
(-2.29304 -0.0163096 -2.31306e-21)
(-2.25903 -0.0171742 0)
(-2.22307 -0.0180518 0)
(-2.18512 -0.0189424 0)
(-2.14515 -0.0198462 0)
(-2.10313 -0.0207631 0)
(-2.05903 -0.021693 -4.04895e-20)
(-2.01282 -0.022636 -4.92144e-20)
(-1.96447 -0.0235921 0)
(-1.91395 -0.024561 0)
(-1.86125 -0.0255419 0)
(-1.80635 -0.0265339 8.85259e-20)
(-1.74924 -0.0275362 0)
(-1.68991 -0.0285491 0)
(-1.62836 -0.0295728 0)
(-1.56459 -0.0306052 1.36695e-19)
(-1.49861 -0.0316442 -1.50485e-19)
(-1.43044 -0.0326916 0)
(-1.36011 -0.033747 0)
(-1.28764 -0.0348058 -1.97135e-19)
(-1.21308 -0.0358702 -2.14741e-19)
(-1.13647 -0.0369404 0)
(-1.05787 -0.0380104 0)
(-0.977353 -0.0390899 2.75375e-19)
(-0.894986 -0.0401682 -2.98713e-19)
(-0.810852 -0.0412475 0)
(-0.725052 -0.0423229 0)
(-0.637668 -0.0434047 -3.81156e-19)
(-0.548839 -0.0444976 0)
(-0.458622 -0.04564 0)
(-0.367305 -0.0468446 -4.89448e-19)
(-0.274515 -0.0481433 0)
(-0.180699 -0.0496017 -5.83463e-19)
(-0.0875345 -0.0509239 0)
(0.0100967 -0.0506331 0)
(0.104551 -0.0487957 0)
(0.198092 -0.046987 6.22773e-19)
(0.290823 -0.0453163 0)
(0.382608 -0.0437348 0)
(0.473349 -0.0422065 0)
(0.562905 -0.040706 0)
(0.651116 -0.0392207 0)
(0.737817 -0.0377425 0)
(0.822835 -0.0362659 4.99622e-19)
(0.906003 -0.0347882 4.87836e-19)
(0.987153 -0.0333075 0)
(1.06612 -0.0318207 0)
(1.14272 -0.0303223 0)
(1.21678 -0.0288017 -4.49293e-19)
(1.28805 -0.0272388 0)
(1.35622 -0.0255955 8.68791e-19)
(1.42084 -0.0237994 -8.56096e-19)
(1.48105 -0.021681 -8.45213e-19)
(1.53554 -0.0189347 8.36832e-19)
(1.58022 -0.0145122 -8.32695e-19)
(1.61235 -0.00666339 8.37271e-19)
(1.5772 0.0170812 0)
(0.00224953 -0.0412157 0)
(0.00227738 -0.0265729 0)
(-0.00526267 -0.00347747 2.70317e-19)
(-0.016795 0.0180338 0)
(-0.0311548 0.0361189 -1.77327e-19)
(-0.0478927 0.0504342 -1.61326e-19)
(-0.0667103 0.0610181 -7.5101e-20)
(-0.087396 0.0683589 -7.07535e-20)
(-0.109833 0.0733894 0)
(-0.133755 0.0768742 -6.3048e-20)
(-0.158857 0.0793366 0)
(-0.184876 0.0810973 0)
(-0.211603 0.0823429 1.06839e-19)
(-0.238875 0.0831851 5.08022e-20)
(-0.266568 0.0836972 -9.6549e-20)
(-0.294581 0.0839338 -9.20552e-20)
(-0.322833 0.0839398 -4.40417e-20)
(-0.351259 0.0837547 0)
(-0.379808 0.0834143 0)
(-0.408436 0.0829503 0)
(-0.437113 0.0823913 -3.72757e-20)
(-0.465812 0.0817622 0)
(-0.494516 0.0810849 1.04378e-19)
(-0.523214 0.0803778 0)
(-0.551899 0.0796564 0)
(-0.58057 0.0789332 3.16507e-20)
(-0.609227 0.0782185 0)
(-0.637877 0.0775201 -2.98769e-20)
(-0.666528 0.0768438 -5.80194e-20)
(-0.695189 0.0761941 2.83239e-20)
(-0.723873 0.0755738 0)
(-0.752593 0.074985 0)
(-0.781364 0.0744288 0)
(-0.810202 0.073906 -5.13347e-20)
(-0.839122 0.0734172 -5.02126e-20)
(-0.868144 0.0729661 -2.46404e-20)
(-0.897279 0.0725621 0)
(-0.926534 0.0722128 4.73026e-20)
(-0.955913 0.071913 0)
(-0.985418 0.0716508 -4.54928e-20)
(-1.01506 0.0714163 0)
(-1.04483 0.0712014 0)
(-1.07475 0.0709994 4.30379e-20)
(-1.10482 0.0708043 0)
(-1.13503 0.0706112 1.24374e-19)
(-1.16538 0.0704154 -4.08411e-20)
(-1.19588 0.0702127 0)
(-1.22652 0.0699994 -3.94973e-20)
(-1.25729 0.0697718 -3.88575e-20)
(-1.28819 0.0695267 0)
(-1.31921 0.0692612 0)
(-1.35033 0.0689723 0)
(-1.38156 0.0686575 0)
(-1.41286 0.0683144 0)
(-1.44424 0.0679408 3.54007e-20)
(-1.47567 0.0675346 6.94973e-20)
(-1.50714 0.0670939 -3.43721e-20)
(-1.53863 0.0666171 0)
(-1.57012 0.0661027 6.65326e-20)
(-1.60159 0.0655494 -3.26685e-20)
(-1.63302 0.0649559 0)
(-1.66439 0.0643214 -3.20126e-20)
(-1.69567 0.0636448 0)
(-1.72684 0.0629252 0)
(-1.75788 0.062162 -6.11877e-20)
(-1.78875 0.0613545 3.02986e-20)
(-1.81944 0.060502 -5.95413e-20)
(-1.84991 0.0596042 5.8738e-20)
(-1.88013 0.0586606 2.90879e-20)
(-1.91008 0.0576708 0)
(-1.93972 0.0566345 2.83073e-20)
(-1.96902 0.0555513 0)
(-1.99796 0.0544209 0)
(-2.02649 0.0532428 0)
(-2.05459 0.0520169 2.65863e-20)
(-2.08221 0.050743 0)
(-2.10933 0.049421 5.1893e-20)
(-2.1359 0.0480507 -7.68248e-20)
(-2.16189 0.0466322 -2.52983e-20)
(-2.18725 0.0451652 0)
(-2.21196 0.0436498 -2.45519e-20)
(-2.23596 0.042086 0)
(-2.25922 0.0404741 -4.75984e-20)
(-2.28169 0.0388146 0)
(-2.30333 0.037108 -4.60718e-20)
(-2.3241 0.0353552 9.03352e-20)
(-2.34395 0.0335573 4.45156e-20)
(-2.36284 0.0317156 0)
(-2.38071 0.0298318 0)
(-2.39754 0.027908 0)
(-2.41327 0.025947 -4.1283e-20)
(-2.42786 0.023952 0)
(-2.44126 0.0219264 3.95915e-20)
(-2.45344 0.0198742 0)
(-2.46436 0.0177998 -1.1343e-19)
(-2.47398 0.0157075 -3.69413e-20)
(-2.48227 0.0136021 -3.60246e-20)
(-2.48918 0.0114883 0)
(-2.4947 0.00937044 0)
(-2.4988 0.00725095 0)
(-2.50145 0.00512935 0)
(-2.50261 0.00301313 0)
(-2.50231 0.000928068 -6.02791e-20)
(-2.50054 -0.00111385 -5.81535e-20)
(-2.4973 -0.00312189 0)
(-2.49257 -0.00510155 2.68055e-20)
(-2.48635 -0.00705688 2.56573e-20)
(-2.47864 -0.00899135 0)
(-2.46941 -0.010908 4.67732e-20)
(-2.45866 -0.0128094 0)
(-2.44636 -0.0146982 -2.10475e-20)
(-2.43249 -0.0165766 0)
(-2.41705 -0.0184472 0)
(-2.39999 -0.0203123 3.39704e-20)
(-2.38131 -0.0221738 0)
(-2.36096 -0.0240334 -1.40084e-20)
(-2.33893 -0.0258924 0)
(-2.31518 -0.0277522 0)
(-2.28968 -0.0296142 -9.97502e-21)
(-2.26241 -0.0314798 -7.94485e-21)
(-2.23332 -0.0333503 0)
(-2.20238 -0.0352263 5.21061e-21)
(-2.16956 -0.0371083 0)
(-2.13483 -0.0389967 -1.82186e-21)
(-2.09813 -0.0408914 5.03661e-22)
(-2.05945 -0.0427917 0)
(-2.01874 -0.0446961 0)
(-1.97596 -0.0466026 0)
(-1.9311 -0.0485091 0)
(-1.88411 -0.0504138 2.05155e-20)
(-1.83497 -0.0523146 7.25015e-20)
(-1.78366 -0.0542092 0)
(-1.73014 -0.0560947 0)
(-1.67441 -0.0579667 0)
(-1.61644 -0.0598201 -4.25885e-20)
(-1.55624 -0.06165 0)
(-1.49379 -0.0634536 0)
(-1.4291 -0.0652288 1.12367e-19)
(-1.36218 -0.0669679 6.01924e-20)
(-1.29305 -0.0686618 6.75889e-20)
(-1.22172 -0.0703096 0)
(-1.14823 -0.0719087 0)
(-1.07263 -0.0734454 8.40549e-20)
(-0.994948 -0.0749179 -8.73008e-20)
(-0.915255 -0.0763248 0)
(-0.83362 -0.0776477 0)
(-0.750115 -0.0788997 -1.07753e-19)
(-0.664829 -0.0800616 3.39242e-19)
(-0.577846 -0.0811323 0)
(-0.489289 -0.0821059 0)
(-0.399234 -0.0829916 1.33501e-19)
(-0.307859 -0.0837956 0)
(-0.215153 -0.0845406 2.91393e-19)
(-0.121533 -0.0852624 -1.51235e-19)
(-0.0265056 -0.085802 0)
(0.0693419 -0.086131 1.6333e-19)
(0.16416 -0.0864299 3.25871e-19)
(0.259372 -0.0857052 0)
(0.353654 -0.083922 0)
(0.447355 -0.0821445 -1.68258e-19)
(0.540204 -0.0803609 0)
(0.632027 -0.0785458 3.38983e-19)
(0.722666 -0.0766703 0)
(0.811957 -0.0747144 0)
(0.899733 -0.07267 0)
(0.985831 -0.0705348 0)
(1.07009 -0.0683105 -1.75369e-19)
(1.15235 -0.0660006 -1.76096e-19)
(1.23245 -0.0636082 0)
(1.31026 -0.0611328 0)
(1.3856 -0.0585679 0)
(1.4583 -0.0558956 1.7847e-19)
(1.52816 -0.0530767 0)
(1.59489 -0.0500321 -3.58936e-19)
(1.65809 -0.046608 3.59996e-19)
(1.71704 -0.0424678 3.61254e-19)
(1.77075 -0.0369527 3.61012e-19)
(1.81629 -0.0282852 3.65684e-19)
(1.85393 -0.0127709 3.69505e-19)
(1.858 0.0208221 0)
(-0.00606053 -0.0323726 0)
(-0.0167111 -0.00216463 0)
(-0.0312734 0.0265836 -1.65456e-19)
(-0.0474088 0.0505139 -1.23316e-19)
(-0.0645634 0.0705773 1.04584e-19)
(-0.0824687 0.0870882 9.41821e-20)
(-0.101275 0.100233 4.36888e-23)
(-0.121158 0.110334 0)
(-0.142187 0.11791 0)
(-0.164287 0.123505 0)
(-0.187313 0.12759 0)
(-0.211099 0.130526 0)
(-0.235492 0.132574 -1.94534e-19)
(-0.260362 0.133925 0)
(-0.285603 0.134714 5.95939e-20)
(-0.311132 0.135049 5.72428e-20)
(-0.336881 0.135014 0)
(-0.362799 0.13468 0)
(-0.388844 0.134107 0)
(-0.414984 0.133346 0)
(-0.441195 0.132443 4.78647e-20)
(-0.467458 0.131438 0)
(-0.493761 0.130363 -4.49965e-20)
(-0.520096 0.129247 0)
(-0.546458 0.128113 0)
(-0.572848 0.126981 0)
(-0.599268 0.125867 -8.05433e-20)
(-0.625721 0.124783 0)
(-0.652216 0.123739 3.84079e-20)
(-0.678761 0.122741 -7.4937e-20)
(-0.705365 0.121794 0)
(-0.732039 0.120903 0)
(-0.758795 0.120068 0)
(-0.785645 0.119291 3.44584e-20)
(-0.812598 0.118572 3.37823e-20)
(-0.839667 0.117912 0)
(-0.866858 0.11731 0)
(-0.894175 0.116764 -6.37087e-20)
(-0.921619 0.116269 -6.25656e-20)
(-0.949192 0.115816 6.14644e-20)
(-0.976897 0.115395 0)
(-1.00474 0.114998 0)
(-1.03271 0.114617 0)
(-1.06082 0.114243 0)
(-1.08907 0.11387 -5.66405e-20)
(-1.11745 0.113491 -5.5586e-20)
(-1.14596 0.113099 5.47079e-20)
(-1.1746 0.112689 0)
(-1.20335 0.112255 0)
(-1.23222 0.111792 0)
(-1.2612 0.111296 0)
(-1.29026 0.110763 -5.0663e-20)
(-1.31941 0.110187 0)
(-1.34863 0.109565 0)
(-1.37791 0.108895 -4.84724e-20)
(-1.40723 0.108172 -4.79284e-20)
(-1.43658 0.107394 0)
(-1.46593 0.106558 9.28565e-20)
(-1.49528 0.105662 -4.59262e-20)
(-1.52459 0.104704 4.52858e-20)
(-1.55386 0.103683 0)
(-1.58306 0.102596 0)
(-1.61216 0.101442 0)
(-1.64115 0.10022 0)
(-1.67 0.0989285 4.22519e-20)
(-1.69869 0.0975671 8.30645e-20)
(-1.72719 0.0961346 4.11035e-20)
(-1.75547 0.0946305 -4.05403e-20)
(-1.78351 0.093054 0)
(-1.81127 0.0914046 7.85991e-20)
(-1.83874 0.0896817 7.75124e-20)
(-1.86588 0.0878848 7.64348e-20)
(-1.89266 0.0860134 -7.5365e-20)
(-1.91905 0.0840671 0)
(-1.94501 0.0820454 -1.09984e-19)
(-1.97052 0.0799481 0)
(-1.99554 0.0777749 3.54553e-20)
(-2.02003 0.0755256 3.5151e-20)
(-2.04396 0.0731999 0)
(-2.06729 0.0707977 0)
(-2.08999 0.0683189 6.69219e-20)
(-2.11201 0.0657635 0)
(-2.13331 0.0631318 6.4794e-20)
(-2.15386 0.0604244 0)
(-2.1736 0.057642 -6.26383e-20)
(-2.19251 0.0547857 -1.2324e-19)
(-2.21053 0.0518572 0)
(-2.22762 0.0488585 0)
(-2.24374 0.0457921 0)
(-2.25885 0.0426616 -5.70608e-20)
(-2.27289 0.039471 0)
(-2.28582 0.0362254 -5.47298e-20)
(-2.29761 0.0329302 0)
(-2.30821 0.0295915 0)
(-2.31758 0.0262162 1.02236e-19)
(-2.32569 0.0228115 0)
(-2.33249 0.0193848 4.85796e-20)
(-2.33796 0.0159436 0)
(-2.34206 0.0124949 4.59726e-20)
(-2.34476 0.00904319 0)
(-2.34604 0.00559158 0)
(-2.34589 0.002168 0)
(-2.34431 -0.00119602 1.2114e-19)
(-2.3413 -0.00450017 3.88468e-20)
(-2.33685 -0.00775287 0)
(-2.33095 -0.0109613 0)
(-2.32359 -0.0141315 0)
(-2.31477 -0.0172686 0)
(-2.30446 -0.0203774 -3.09796e-20)
(-2.29264 -0.0234622 5.89679e-20)
(-2.27931 -0.0265268 2.76073e-20)
(-2.26445 -0.0295754 -5.21456e-20)
(-2.24802 -0.0326115 -4.86286e-20)
(-2.23001 -0.0356387 -2.22849e-20)
(-2.21039 -0.0386599 0)
(-2.18913 -0.0416775 -3.76315e-20)
(-2.1662 -0.0446938 0)
(-2.14158 -0.0477105 2.99096e-20)
(-2.11523 -0.0507297 1.26476e-20)
(-2.08712 -0.0537531 0)
(-2.05721 -0.0567819 -1.77042e-20)
(-2.02547 -0.059817 -6.36461e-21)
(-1.99187 -0.0628589 0)
(-1.95636 -0.0659076 -2.7573e-21)
(-1.91892 -0.0689625 -1.24644e-22)
(-1.8795 -0.0720218 0)
(-1.83807 -0.0750823 0)
(-1.79459 -0.0781397 0)
(-1.74904 -0.08119 0)
(-1.70138 -0.084229 -2.37787e-20)
(-1.65159 -0.0872526 -2.99207e-20)
(-1.59964 -0.0902566 0)
(-1.54551 -0.0932356 0)
(-1.48918 -0.096181 0)
(-1.43063 -0.0990828 0)
(-1.36987 -0.101932 0)
(-1.30689 -0.104723 0)
(-1.24169 -0.10745 -6.82505e-20)
(-1.17429 -0.110101 -1.36655e-21)
(-1.1047 -0.112659 0)
(-1.03296 -0.115118 0)
(-0.959088 -0.117477 -9.03813e-20)
(-0.883139 -0.119709 0)
(-0.805169 -0.121809 1.04002e-19)
(-0.725231 -0.123775 1.08565e-19)
(-0.643411 -0.125575 0)
(-0.559779 -0.127225 0)
(-0.47444 -0.128701 -1.2875e-19)
(-0.387469 -0.129996 -2.66605e-19)
(-0.299017 -0.131112 0)
(-0.20914 -0.132048 0)
(-0.118056 -0.132833 0)
(-0.0257004 -0.13339 -1.59518e-19)
(0.0674445 -0.133712 1.63526e-19)
(0.160769 -0.133632 0)
(0.254277 -0.133091 3.34975e-19)
(0.347342 -0.13229 1.68541e-19)
(0.440153 -0.130824 -3.45922e-19)
(0.532494 -0.128705 0)
(0.624297 -0.126427 0)
(0.715231 -0.124021 -3.62435e-19)
(0.805073 -0.121474 -1.85222e-19)
(0.89363 -0.118766 0)
(0.980728 -0.115888 0)
(1.0662 -0.112837 0)
(1.14988 -0.109618 0)
(1.23162 -0.10624 -3.90439e-19)
(1.31127 -0.102712 0)
(1.3887 -0.0990403 0)
(1.46375 -0.0952281 0)
(1.5363 -0.0912666 0)
(1.60619 -0.08713 0)
(1.67323 -0.0827603 0)
(1.73718 -0.0780412 -4.15169e-19)
(1.7977 -0.0727513 0)
(1.85422 -0.066436 0)
(1.90609 -0.0582392 -8.51605e-19)
(1.95135 -0.0461661 4.29614e-19)
(1.99215 -0.0265972 -4.3753e-19)
(2.01519 0.00889501 4.43805e-19)
(-0.0121571 -0.00315854 0)
(-0.027659 0.0347964 4.42522e-19)
(-0.0450473 0.0640425 0)
(-0.0636467 0.0881048 9.29571e-20)
(-0.0824615 0.10849 0)
(-0.101265 0.125648 0)
(-0.12027 0.139786 -6.38911e-20)
(-0.139699 0.151137 0)
(-0.15969 0.160025 0)
(-0.180287 0.166829 0)
(-0.20147 0.171919 0)
(-0.223178 0.175624 0)
(-0.245337 0.178218 1.90673e-19)
(-0.267871 0.179917 9.16499e-20)
(-0.290713 0.180896 -8.82267e-20)
(-0.313804 0.181292 0)
(-0.337097 0.181218 0)
(-0.360554 0.180768 0)
(-0.384146 0.180019 0)
(-0.407848 0.17904 0)
(-0.431642 0.177888 7.22246e-20)
(-0.455517 0.17661 7.01668e-20)
(-0.479462 0.17525 -6.82456e-20)
(-0.503472 0.173842 6.64489e-20)
(-0.527544 0.172415 0)
(-0.551678 0.170994 0)
(-0.575876 0.169598 6.17365e-20)
(-0.600141 0.168243 0)
(-0.624479 0.16694 0)
(-0.648896 0.165698 5.77672e-20)
(-0.673399 0.164522 5.65315e-20)
(-0.697995 0.163418 5.54007e-20)
(-0.722692 0.162385 0)
(-0.747499 0.161425 0)
(-0.772421 0.160536 -5.23085e-20)
(-0.797466 0.159715 0)
(-0.822638 0.158959 0)
(-0.847939 0.158263 4.96459e-20)
(-0.873371 0.157619 -4.86693e-20)
(-0.898936 0.15702 4.78524e-20)
(-0.924633 0.156454 0)
(-0.950465 0.155913 0)
(-0.97643 0.155387 9.1253e-20)
(-1.00253 0.154867 0)
(-1.02876 0.154344 8.84134e-20)
(-1.05511 0.153809 1.30653e-19)
(-1.0816 0.153256 -1.28665e-19)
(-1.10819 0.152676 8.4434e-20)
(-1.13491 0.152062 0)
(-1.16172 0.151407 0)
(-1.18864 0.150706 8.07451e-20)
(-1.21563 0.149953 3.98639e-20)
(-1.24271 0.149142 0)
(-1.26984 0.148268 0)
(-1.29702 0.147326 3.81816e-20)
(-1.32424 0.146314 7.5134e-20)
(-1.35147 0.145226 0)
(-1.37871 0.144059 -7.32019e-20)
(-1.40593 0.142811 7.20365e-20)
(-1.43312 0.141478 -7.10422e-20)
(-1.46025 0.140058 0)
(-1.48731 0.13855 0)
(-1.51428 0.136951 0)
(-1.54113 0.135259 0)
(-1.56784 0.133474 0)
(-1.59438 0.131593 -6.55474e-20)
(-1.62074 0.129616 0)
(-1.64688 0.127542 0)
(-1.67279 0.12537 0)