/*--------------------------------*- C++ -*----------------------------------*\
| =========                 |                                                 |
| \\      /  F ield         | OpenFOAM: The Open Source CFD Toolbox           |
|  \\    /   O peration     | Version:  2.2.x                                 |
|   \\  /    A nd           | Web:      www.OpenFOAM.org                      |
|    \\/     M anipulation  |                                                 |
\*---------------------------------------------------------------------------*/
FoamFile
{
    version     2.0;
    format      ascii;
    class       volScalarField;
    location    "400";
    object      epsilon;
}
// * * * * * * * * * * * * * * * * * * * * * * * * * * * * * * * * * * * * * //

dimensions      [0 2 -3 0 0 0 0];

internalField   nonuniform List<scalar> 
12225
(
1739.11
3020.52
4030.09
4714.57
5132.02
5357.86
5455.74
5472.31
5439.39
5377.76
5300.69
5216.48
5130.24
5045.06
4962.71
4884.15
4808.67
4742.99
187.43
345.304
471.682
572.278
644.856
692.95
722.76
740.03
749.182
753.352
754.658
754.48
753.688
752.824
752.252
752.488
755.758
762.789
41.845
72.5078
98.587
120.684
138.67
152.643
163.103
170.688
176.023
179.661
182.06
183.583
184.509
185.051
185.37
185.622
185.981
186.27
20.3597
27.9827
35.4703
42.3231
48.3605
53.5177
57.8237
61.3558
64.2096
66.4842
68.2745
69.6663
70.7345
71.5433
72.1472
72.5928
72.9145
73.0894
16.0561
18.2136
20.6754
23.1508
25.4983
27.6447
29.5613
31.2449
32.7059
33.9612
35.0309
35.9357
36.6958
37.3302
37.8557
38.2874
38.6357
38.8978
15.0131
15.5456
16.3129
17.1963
18.1156
19.0193
19.8769
20.6725
21.3988
22.0541
22.6401
23.1601
23.6189
24.0212
24.3721
24.6762
24.937
25.1532
14.7583
14.7814
14.9212
15.1495
15.4362
15.7553
16.0871
16.4178
16.7381
17.0422
17.3266
17.5896
17.8308
18.0501
18.2482
18.4259
18.584
18.721
14.7063
14.5999
14.5497
14.5523
14.5991
14.6792
14.7824
14.8999
15.0251
15.1525
15.2786
15.4007
15.517
15.6262
15.7278
15.8213
15.9063
15.9812
14.6923
14.5448
14.4247
14.3339
14.2712
14.2336
14.2168
14.2166
14.2291
14.2507
14.2786
14.3104
14.3444
14.3792
14.4135
14.4467
14.478
14.506
14.6883
14.5275
14.3816
14.2517
14.1383
14.041
13.9587
13.8899
13.8329
13.786
13.7475
13.7161
13.6903
13.6691
13.6514
13.6366
13.6238
13.6123
14.6872
14.5228
14.3691
14.2261
14.0939
13.9722
13.8609
13.7594
13.667
13.5831
13.507
13.4378
13.3749
13.3176
13.2652
13.2172
13.173
13.1324
14.6868
14.5215
14.3659
14.2194
14.0816
13.9522
13.8308
13.717
13.6106
13.511
13.4179
13.3309
13.2496
13.1735
13.1023
13.0356
12.9731
12.915
14.6866
14.5211
14.365
14.2176
14.0785
13.9471
13.823
13.7057
13.595
13.4903
13.3914
13.2979
13.2096
13.1261
13.0471
12.9724
12.9017
12.8355
14.6865
14.5209
14.3646
14.217
14.0775
13.9457
13.8209
13.7028
13.591
13.485
13.3846
13.2893
13.199
13.1132
13.0318
12.9545
12.8811
12.812
14.6864
14.5207
14.3643
14.2166
14.077
13.945
13.82
13.7017
13.5896
13.4833
13.3825
13.2868
13.1959
13.1096
13.0276
12.9496
12.8754
12.8056
14.6863
14.5206
14.3641
14.2163
14.0766
13.9445
13.8194
13.701
13.5888
13.4823
13.3814
13.2855
13.1945
13.108
13.0257
12.9475
12.8732
12.8032
14.6863
14.5205
14.364
14.2161
14.0764
13.9442
13.8191
13.7005
13.5882
13.4817
13.3806
13.2847
13.1936
13.1069
13.0246
12.9463
12.8718
12.8017
14.6863
14.5205
14.364
14.2161
14.0763
13.944
13.8189
13.7003
13.5879
13.4814
13.3802
13.2842
13.193
13.1064
13.024
12.9456
12.8711
12.8009
14.6863
14.5205
14.364
14.2161
14.0763
13.9441
13.8189
13.7003
13.5879
13.4813
13.3802
13.2842
13.193
13.1063
13.0239
12.9455
12.871
12.8008
14.6863
14.5206
14.3641
14.2162
14.0765
13.9442
13.8191
13.7006
13.5883
13.4817
13.3807
13.2848
13.1937
13.1072
13.0249
12.9467
12.8724
12.8025
14.6864
14.5207
14.3642
14.2165
14.0769
13.9449
13.82
13.7019
13.59
13.4841
13.3838
13.2888
13.1987
13.1133
13.0323
12.9554
12.8826
12.8142
14.6865
14.5209
14.3648
14.2177
14.0791
13.9486
13.8258
13.7103
13.6018
13.4998
13.404
13.3139
13.2293
13.1499
13.0751
13.0049
12.9388
12.8773
14.6868
14.5224
14.369
14.2265
14.095
13.9742
13.8636
13.7628
13.6711
13.5877
13.512
13.4432
13.3806
13.3236
13.2717
13.2242
13.1807
13.1414
14.6896
14.5346
14.3997
14.286
14.1933
14.12
14.0639
14.0228
13.994
13.9755
13.9652
13.9613
13.9624
13.9673
13.9749
13.9845
13.9955
14.0075
14.7121
14.6198
14.5883
14.6114
14.6787
14.7793
14.9029
15.0412
15.1879
15.3377
15.4872
15.6336
15.7751
15.9104
16.0388
16.1598
16.2733
16.3793
14.8714
15.1221
15.5437
16.0694
16.6497
17.2495
17.8458
18.4239
18.9752
19.4946
19.9796
20.4293
20.8441
21.2249
21.5732
21.8909
22.1797
22.4414
15.8759
17.7062
19.7889
21.8994
23.9456
25.8805
27.6815
29.34
30.8546
32.2283
33.4666
34.5771
35.5686
36.4501
37.2309
37.9199
38.5255
39.0556
22.1652
31.1008
39.317
46.8959
53.8955
60.2865
66.0572
71.2141
75.7755
79.7709
83.2391
86.2255
88.7781
90.9451
92.7724
94.3011
95.5646
96.5821
68.0192
114.901
154.787
191.797
226.048
256.881
283.985
307.336
327.094
343.547
357.061
368.024
376.82
383.801
389.278
393.507
396.675
398.788
723.143
1065.45
1375.75
1655.2
1913.02
2142.28
2339.67
2504.83
2639.44
2746.35
2828.94
2890.73
2935.05
2964.94
2983.08
2991.77
2992.98
2988.19
2.13561
2.17665
3.12166
3.98148
4.9703
6.04306
7.3437
8.93501
10.7465
12.7961
15.0661
17.5376
20.1965
23.0331
26.041
29.2176
32.5652
36.0927
39.8189
43.7208
47.7765
51.9797
56.3256
60.81
65.4287
70.1779
75.0541
80.0539
85.1743
90.4127
95.7668
101.235
106.815
112.506
118.307
124.218
130.239
136.37
142.612
148.966
155.434
162.018
168.719
175.54
182.483
189.552
196.748
204.076
211.537
219.135
226.872
234.751
242.773
250.941
259.256
267.719
276.33
285.089
293.994
303.043
312.233
321.56
331.018
340.602
350.303
360.112
370.019
380.011
390.075
400.196
410.356
420.538
430.72
440.881
450.998
461.046
470.999
480.83
490.51
500.011
509.303
518.356
527.143
535.633
543.799
551.616
559.058
566.105
572.737
578.939
584.697
590.005
594.858
599.257
603.207
606.718
609.805
612.485
614.781
616.721
618.333
619.649
620.702
621.529
622.165
622.647
623.009
623.285
623.506
623.701
623.895
624.11
624.364
624.672
625.042
625.482
625.995
626.578
627.227
627.934
628.692
629.492
630.327
631.194
632.101
633.069
634.148
635.44
636.969
638.407
639.734
640.93
641.971
642.836
643.508
643.97
644.211
644.225
644.007
643.556
642.875
641.976
640.879
639.603
638.162
636.578
634.879
633.078
631.189
629.22
627.156
624.97
622.594
619.896
616.78
613.11
608.295
602.575
596.55
588.46
590.27
593.233
594.228
592.758
588.705
582.077
573.007
561.723
548.512
533.706
517.651
500.679
483.088
465.124
446.951
428.63
410.071
390.781
369.691
347.053
7.1841
4.00305
3.87244
4.31921
5.0052
5.87043
6.90375
8.09593
9.4245
10.8687
12.4098
14.0337
15.7303
17.4928
19.3169
21.1997
23.1396
25.1357
27.1864
29.2878
31.4365
33.6309
35.8696
38.1519
40.4772
42.845
45.2547
47.7063
50.1994
52.7339
55.3099
57.9272
60.5861
63.2867
66.0292
68.814
71.6415
74.5122
77.4265
80.3852
83.3889
86.4381
89.5338
92.6766
95.8672
99.1064
102.395
105.733
109.122
112.562
116.054
119.597
123.192
126.838
130.536
134.286
138.085
141.934
145.831
149.775
153.763
157.793
161.862
165.968
170.107
174.276
178.468
182.681
186.908
191.144
195.383
199.617
203.84
208.044
212.22
216.361
220.457
224.5
228.48
232.388
236.215
239.95
243.584
247.108
250.513
253.79
256.933
259.934
262.786
265.486
268.028
270.411
272.633
274.693
276.592
278.333
279.919
281.355
282.647
283.801
284.826
285.73
286.523
287.214
287.813
288.328
288.77
289.147
289.466
289.737
289.964
290.155
290.315
290.448
290.558
290.647
290.717
290.769
290.806
290.828
290.837
290.837
290.832
290.829
290.837
290.871
290.948
291.091
291.391
291.695
291.983
292.249
292.494
292.715
292.911
293.081
293.226
293.349
293.452
293.539
293.616
293.687
293.759
293.842
293.941
294.063
294.218
294.405
294.63
294.887
295.164
295.44
295.676
295.809
295.772
295.452
294.707
293.357
291.667
289.297
288.061
286.794
284.739
281.709
277.669
272.637
266.682
259.906
252.435
244.406
235.969
227.261
218.417
209.552
200.768
192.156
183.806
175.854
168.684
165.947
13.4522
6.69038
5.89696
6.03022
6.53467
7.27627
8.20534
9.29157
10.5074
11.8275
13.2305
14.7
16.2245
17.7962
19.4099
21.0623
22.7511
24.4748
26.232
28.0213
29.842
31.6934
33.5757
35.4886
37.4325
39.4074
41.4135
43.4511
45.5204
47.6216
49.7549
51.9206
54.1189
56.3501
58.6143
60.9119
63.2433
65.6086
68.0083
70.4428
72.9124
75.4176
77.9587
80.5362
83.1506
85.8022
88.4915
91.2187
93.9844
96.7888
99.6321
102.514
105.436
108.397
111.396
114.435
117.512
120.626
123.778
126.966
130.189
133.446
136.736
140.056
143.404
146.778
150.176
153.595
157.031
160.482
163.942
167.409
170.877
174.341
177.796
181.237
184.657
188.051
191.411
194.732
198.005
201.224
204.382
207.47
210.483
213.413
216.253
218.997
221.638
224.171
226.592
228.896
231.08
233.142
235.08
236.893
238.582
240.148
241.593
242.92
244.133
245.236
246.233
247.13
247.932
248.644
249.273
249.824
250.303
250.714
251.063
251.354
251.592
251.78
251.922
252.022
252.083
252.108
252.1
252.063
252.002
251.92
251.824
251.72
251.617
251.524
251.451
251.406
251.377
251.331
251.26
251.164
251.041
250.894
250.721
250.523
250.303
250.062
249.802
249.528
249.242
248.948
248.653
248.362
248.081
247.815
247.571
247.351
247.156
246.985
246.826
246.661
246.457
246.167
245.722
244.996
243.893
242.349
240.549
238.41
236.26
233.754
230.639
226.829
222.313
217.12
211.313
204.975
198.205
191.113
183.807
176.392
168.968
161.624
154.44
147.499
140.895
134.793
129.54
126.691
19.8217
9.49286
7.94369
7.78852
8.13648
8.77084
9.61134
10.6151
11.751
12.9932
14.3202
15.715
17.1647
18.6602
20.1953
21.7657
23.3688
25.0026
26.666
28.3583
30.0792
31.8287
33.6068
35.4139
37.2504
39.1166
41.0128
42.9395
44.8968
46.8852
48.9048
50.9559
53.0388
55.1536
57.3005
59.4798
61.6917
63.9365
66.2143
68.5255
70.8703
73.249
75.6621
78.1098
80.5925
83.1107
85.6647
88.2548
90.8816
93.5455
96.2466
98.9855
101.762
104.578
107.431
110.324
113.255
116.224
119.232
122.279
125.363
128.484
131.642
134.836
138.065
141.327
144.621
147.945
151.297
154.676
158.077
161.498
164.936
168.387
171.847
175.311
178.774
182.231
185.676
189.103
192.505
195.875
199.207
202.491
205.722
208.89
211.989
215.011
217.948
220.792
223.538
226.179
228.709
231.123
233.418
235.59
237.638
239.56
241.356
243.026
244.571
245.994
247.296
248.481
249.552
250.514
251.371
252.128
252.788
253.358
253.842
254.245
254.571
254.824
255.009
255.131
255.192
255.198
255.152
255.058
254.922
254.747
254.539
254.304
254.047
253.777
253.495
253.187
252.843
252.455
252.019
251.535
251.002
250.421
249.79
249.111
248.384
247.61
246.791
245.929
245.027
244.088
243.117
242.12
241.106
240.078
239.044
238.013
236.987
235.97
234.955
233.933
232.874
231.743
230.457
228.961
227.253
225.299
223.138
220.717
218.044
214.958
211.343
207.152
202.382
197.065
191.257
185.034
178.484
171.703
164.788
157.831
150.918
144.127
137.532
131.207
125.24
119.773
115.042
111.727
27.375
12.3064
9.90352
9.43963
9.62751
10.1558
10.9114
11.839
12.9034
14.0782
15.3425
16.6796
18.0762
19.5228
21.0121
22.5395
24.1015
25.696
27.3217
28.978
30.6646
32.3814
34.1288
35.907
37.7164
39.5574
41.4305
43.3359
45.274
47.2451
49.2494
51.2871
53.3585
55.4637
57.6028
59.7761
61.9837
64.2258
66.5026
68.8143
71.1612
73.5437
75.9619
78.4164
80.9075
83.4358
86.0016
88.6055
91.2481
93.9299
96.6516
99.4137
102.217
105.062
107.949
110.879
113.852
116.87
119.931
123.037
126.189
129.385
132.626
135.913
139.245
142.621
146.041
149.503
153.008
156.553
160.137
163.757
167.411
171.095
174.807
178.543
182.297
186.064
189.84
193.617
197.389
201.149
204.888
208.599
212.272
215.898
219.469
222.973
226.403
229.748
233
236.148
239.184
242.102
244.893
247.553
250.078
252.463
254.708
256.81
258.768
260.582
262.253
263.782
265.172
266.425
267.546
268.538
269.407
270.156
270.792
271.319
271.742
272.067
272.298
272.441
272.5
272.479
272.383
272.218
271.985
271.691
271.339
270.935
270.482
269.987
269.436
268.814
268.119
267.347
266.498
265.571
264.563
263.473
262.3
261.043
259.701
258.274
256.763
255.169
253.493
251.738
249.906
248.008
246.05
244.04
241.986
239.903
237.797
235.68
233.553
231.417
229.249
227.024
224.75
222.433
220.048
217.563
214.961
212.177
209.138
205.73
201.871
197.521
192.673
187.351
181.601
175.49
169.1
162.518
155.833
149.131
142.495
135.998
129.71
123.699
118.047
112.868
108.314
104.688
34.9619
14.992
11.7012
10.9181
10.9435
11.367
12.0415
12.8983
13.8971
15.0106
16.2182
17.5035
18.8539
20.2596
21.7132
23.2095
24.7449
26.317
27.9241
29.5656
31.2411
32.9504
34.6938
36.4716
38.2841
40.1317
42.0149
43.9339
45.8891
47.8808
49.9092
51.9745
54.0769
56.2165
58.3935
60.608
62.8602
65.1503
67.4785
69.845
72.2501
74.6942
77.1776
79.7007
82.2642
84.8686
87.5144
90.2025
92.9335
95.7083
98.5278
101.393
104.304
107.263
110.271
113.328
116.436
119.595
122.807
126.073
129.393
132.768
136.2
139.688
143.234
146.838
150.499
154.219
157.996
161.83
165.719
169.663
173.66
177.706
181.8
185.937
190.113
194.323
198.562
202.823
207.098
211.379
215.659
219.926
224.172
228.384
232.553
236.665
240.71
244.674
248.546
252.313
255.962
259.482
262.863
266.098
269.18
272.103
274.866
277.464
279.895
282.157
284.248
286.168
287.918
289.501
290.919
292.177
293.278
294.228
295.033
295.699
296.23
296.634
296.915
297.08
297.134
297.081
296.927
296.676
296.332
295.899
295.379
294.778
294.097
293.34
292.475
291.501
290.416
289.221
287.912
286.489
284.948
283.286
281.5
279.588
277.545
275.371
273.065
270.628
268.059
265.358
262.528
259.576
256.514
253.351
250.096
246.765
243.378
239.947
236.487
233.005
229.53
226.113
222.774
219.525
216.353
213.229
210.114
206.931
203.586
199.972
196.007
191.64
186.848
181.635
176.034
170.1
163.904
157.525
151.05
144.561
138.137
131.852
125.772
119.965
114.503
109.479
104.987
101.169
42.0459
17.427
13.2829
12.1893
12.0561
12.3784
12.9762
13.7673
14.706
15.7634
16.9187
18.1561
19.4633
20.8309
22.2517
23.7204
25.2333
26.7877
28.3821
30.0154
31.6873
33.3975
35.1462
36.9337
38.7604
40.6266
42.5328
44.4793
46.4664
48.4945
50.5638
52.6746
54.827
57.0213
59.2575
61.5359
63.8567
66.2201
68.6263
71.0756
73.5684
76.1052
78.6862
81.3123
83.9839
86.7019
89.467
92.2801
95.1422
98.0544
101.018
104.034
107.104
110.229
113.41
116.65
119.949
123.309
126.732
130.219
133.772
137.393
141.082
144.842
148.672
152.576
156.553
160.604
164.731
168.931
173.207
177.556
181.977
186.469
191.029
195.654
200.339
205.08
209.87
214.704
219.573
224.467
229.378
234.295
239.204
244.095
248.953
253.764
258.513
263.185
267.758
272.219
276.554
280.749
284.792
288.672
292.379
295.903
299.237
302.377
305.325
308.075
310.625
312.973
315.118
317.06
318.803
320.35
321.705
322.874
323.863
324.678
325.327
325.815
326.15
326.337
326.384
326.295
326.076
325.73
325.262
324.674
323.97
323.152
322.221
321.168
319.961
318.605
317.1
315.447
313.642
311.681
309.562
307.279
304.826
302.2
299.394
296.403
293.227
289.864
286.314
282.573
278.641
274.525
270.235
265.788
261.19
256.451
251.618
246.69
241.712
236.769
231.91
227.191
222.656
218.338
214.24
210.345
206.611
202.963
199.302
195.517
191.513
187.214
182.572
177.565
172.205
166.527
160.588
154.462
148.226
141.963
135.75
129.66
123.761
118.118
112.798
107.874
103.408
99.4644
48.3284
19.5495
14.6263
13.2433
12.9598
13.1856
13.7107
14.4402
15.3232
16.3286
17.435
18.627
19.8927
21.2233
22.6117
24.0528
25.5431
27.0798
28.6614
30.2868
31.9556
33.6676
35.4229
37.222
39.065
40.9526
42.8852
44.8631
46.8869
48.9569
51.0734
53.2368
55.4473
57.7052
60.0108
62.3644
64.7661
67.2163
69.7154
72.2638
74.8619
77.5103
80.2096
82.9605
85.7639
88.6205
91.5315
94.4981
97.5213
100.603
103.743
106.945
110.21
113.539
116.934
120.397
123.931
127.536
131.216
134.973
138.808
142.723
146.722
150.805
154.975
159.234
163.583
168.024
172.558
177.185
181.907
186.723
191.632
196.632
201.723
206.901
212.162
217.5
222.911
228.386
233.917
239.495
245.108
250.744
256.389
262.029
267.647
273.226
278.742
284.173
289.503
294.715
299.791
304.716
309.474
314.05
318.431
322.604
326.559
330.288
333.78
337.042
340.073
342.869
345.428
347.749
349.833
351.683
353.304
354.701
355.88
356.85
357.617
358.19
358.576
358.783
358.817
358.684
358.39
357.939
357.335
356.579
355.676
354.626
353.43
352.046
350.472
348.71
346.76
344.62
342.287
339.757
337.024
334.081
330.921
327.537
323.92
320.064
315.962
311.613
307.017
302.168
297.063
291.701
286.09
280.265
274.226
267.947
261.555
255.065
248.547
242.079
235.742
229.608
223.746
218.208
213.024
208.198
203.704
199.479
195.428
191.44
187.399
183.204
178.77
174.044
169.004
163.662
158.056
152.246
146.305
140.308
134.335
128.457
122.745
117.263
112.072
107.235
102.79
98.7703
53.6375
21.3269
15.7249
14.0825
13.6605
13.7955
14.2517
14.9229
15.7533
16.7094
17.7693
18.9175
20.1426
21.4361
22.7913
24.2036
25.6693
27.1861
28.7524
30.3672
32.0302
33.7413
35.5008
37.309
39.1664
41.0737
43.0313
45.0399
47.1001
49.2123
51.3771
53.595
55.8664
58.1917
60.5713
63.0058
65.4954
68.0408
70.6424
73.3007
76.0166
78.7905
81.6234
84.5162
87.4699
90.4856
93.5646
96.7083
99.918
103.196
106.543
109.961
113.453
117.02
120.664
124.389
128.196
132.087
136.066
140.135
144.296
148.553
152.908
157.363
161.921
166.585
171.357
176.239
181.233
186.341
191.562
196.899
202.35
207.915
213.592
219.379
225.271
231.264
237.352
243.525
249.776
256.094
262.466
268.878
275.314
281.759
288.185
294.565
300.881
307.112
313.238
319.239
325.094
330.785
336.292
341.596
346.682
351.533
356.136
360.479
364.552
368.346
371.86
375.105
378.078
380.777
383.202
385.354
387.238
388.859
390.223
391.34
392.218
392.865
393.29
393.502
393.509
393.317
392.932
392.359
391.601
390.66
389.539
388.236
386.74
385.006
383.041
380.846
378.422
375.767
372.877
369.745
366.365
362.727
358.822
354.641
350.173
345.407
340.333
334.947
329.254
323.244
316.913
310.247
303.235
295.971
288.446
280.666
272.729
264.682
256.607
248.59
240.725
233.1
225.805
218.914
212.487
206.56
201.135
196.176
191.607
187.321
183.189
179.081
174.875
170.475
165.82
160.888
155.691
150.27
144.688
139.015
133.327
127.699
122.2
116.895
111.844
107.101
102.694
98.6398
57.8756
22.7437
16.5808
14.7161
14.1706
14.222
14.6132
15.2287
16.0085
16.917
17.9317
19.037
20.2217
21.4775
22.7984
24.1797
25.6184
27.1123
28.6599
30.2605
31.914
33.6203
35.3799
37.1934
39.0615
40.9849
42.9645
45.0011
47.0955
49.2485
51.4608
53.7332
56.0663
58.4609
60.9177
63.4373
66.0204
68.6678
71.3802
74.1584
77.0035
79.9162
82.8977
85.9492
89.0719
92.2672
95.5367
98.882
102.305
105.807
109.391
113.058
116.811
120.653
124.585
128.61
132.732
136.953
141.276
145.703
150.239
154.885
159.646
164.524
169.523
174.645
179.893
185.27
190.778
196.42
202.196
208.108
214.156
220.339
226.657
233.106
239.683
246.382
253.197
260.119
267.139
274.244
281.421
288.654
295.923
303.192
310.439
317.643
324.782
331.833
338.774
345.581
352.231
358.701
364.968
371.012
376.812
382.35
387.606
392.568
397.221
401.558
405.57
409.25
412.612
415.666
418.41
420.842
422.966
424.789
426.315
427.556
428.519
429.215
429.654
429.845
429.797
429.518
429.014
428.291
427.35
426.195
424.827
423.243
421.402
419.283
416.892
414.23
411.296
408.089
404.603
400.829
396.759
392.383
387.688
382.664
377.297
371.575
365.476
358.988
352.144
344.923
337.321
329.333
320.971
312.289
303.308
294.063
284.631
275.078
265.488
255.952
246.568
237.437
228.66
220.333
212.546
205.368
198.843
192.973
187.718
182.987
178.653
174.564
170.561
166.501
162.274
157.814
153.098
148.142
142.991
137.707
132.364
127.034
121.789
116.695
111.809
107.183
102.84
98.7919
60.9992
23.797
17.202
15.157
14.506
14.4825
14.8131
15.3757
16.1065
16.9688
17.9391
19.0018
20.146
21.3636
22.6489
23.9977
25.4072
26.8755
28.4015
29.9847
31.625
33.323
35.0793
36.8946
38.7701
40.7067
42.7057
44.7682
46.8953
49.0883
51.3481
53.676
56.0729
58.5401
61.0784
63.6891
66.3731
69.1315
71.9656
74.8764
77.8652
80.9333
84.0821
87.3132
90.628
94.0284
97.5161
101.093
104.761
108.523
112.381
116.337
120.394
124.554
128.82
133.196
137.683
142.286
147.007
151.849
156.816
161.911
167.138
172.5
178.001
183.643
189.43
195.365
201.45
207.688
214.08
220.628
227.332
234.192
241.207
248.374
255.688
263.145
270.736
278.453
286.284
294.216
302.234
310.309
318.405
326.502
334.578
342.608
350.57
358.439
366.188
373.793
381.226
388.462
395.476
402.242
408.739
414.944
420.834
426.391
431.601
436.453
440.938
445.05
448.783
452.143
455.156
457.821
460.14
462.119
463.764
465.084
466.088
466.789
467.197
467.323
467.176
466.765
466.098
465.179
464.011
462.597
460.937
459.016
456.776
454.222
451.355
448.174
444.679
440.866
436.728
432.255
427.437
422.26
416.713
410.78
404.449
397.705
390.536
382.932
374.906
366.449
357.565
348.263
338.563
328.505
318.127
307.48
296.632
285.655
274.634
263.659
252.829
242.246
232.017
222.254
213.064
204.552
196.799
189.86
183.739
178.388
173.698
169.511
165.641
161.898
158.115
154.173
150.003
145.585
140.941
136.12
131.187
126.215
121.275
116.434
111.751
107.276
103.032
99.0317
63.0087
24.4941
17.6009
15.4212
14.6849
14.5966
14.8724
15.3852
16.0693
16.8867
17.8138
18.8348
19.9389
21.1184
22.368
23.6838
25.0633
26.505
28.008
29.5723
31.1982
32.8864
34.6379
36.4541
38.3362
40.2859
42.3046
44.3939
46.5556
48.7913
51.1025
53.4909
55.9581
58.5057
61.1352
63.8483
66.6464
69.5312
72.5044
75.5674
78.7222
81.9704
85.3138
88.7545
92.2943
95.9354
99.6801
103.53
107.489
111.558
115.74
120.039
124.455
128.993
133.656
138.446
143.366
148.42
153.61
158.94
164.414
170.034
175.804
181.728
187.809
194.05
200.454
207.025
213.765
220.675
227.757
235.014
242.444
250.048
257.824
265.768
273.876
282.142
290.556
299.109
307.785
316.571
325.422
334.316
343.233
352.148
361.034
369.868
378.625
387.277
395.798
404.159
412.33
420.285
427.994
435.431
442.57
449.392
455.863
461.961
467.672
472.983
477.884
482.369
486.433
490.074
493.29
496.111
498.552
500.616
502.31
503.642
504.622
505.261
505.573
505.568
505.258
504.651
503.755
502.575
501.114
499.376
497.356
495.008
492.301
489.242
485.831
482.064
477.939
473.45
468.589
463.344
457.703
451.653
445.18
438.268
430.906
423.08
414.784
406.013
396.77
387.058
376.887
366.277
355.256
343.863
332.146
320.162
307.98
295.674
283.327
271.028
258.87
246.952
235.382
224.271
213.738
203.905
194.888
186.786
179.66
173.52
168.3
163.865
160.018
156.528
153.176
149.778
146.205
142.394
138.333
134.051
129.601
125.053
120.476
115.941
111.507
107.225
103.12
99.2125
63.9427
24.8506
17.7931
15.5261
14.7267
14.5857
14.8138
15.2817
15.9226
16.698
17.5843
18.5659
19.6322
20.7759
21.9918
23.2766
24.6282
26.0453
27.5275
29.0752
30.6891
32.3705
34.1207
35.9416
37.835
39.803
41.8478
43.9714
46.1763
48.4647
50.8389
53.3011
55.8537
58.4989
61.239
64.0762
67.0128
70.051
73.1931
76.4414
79.7982
83.2658
86.8467
90.5433
94.358
98.2936
102.352
106.537
110.851
115.296
119.876
124.592
129.449
134.448
139.593
144.887
150.333
155.933
161.69
167.608
173.689
179.936
186.353
192.942
199.706
206.649
213.772
221.08
228.573
236.25
244.115
252.167
260.406
268.832
277.441
286.229
295.19
304.315
313.594
323.016
332.548
342.145
351.795
361.479
371.184
380.875
390.518
400.093
409.576
418.937
428.148
437.18
446.001
454.581
462.89
470.9
478.582
485.91
492.856
499.397
505.514
511.193
516.42
521.188
525.492
529.33
532.703
535.612
538.074
540.127
541.774
543.024
543.888
544.377
544.504
544.281
543.72
542.829
541.617
540.089
538.25
536.097
533.615
530.743
527.481
523.828
519.784
515.343
510.499
505.245
499.571
493.465
486.914
479.903
472.42
464.45
455.982
447.007
437.522
427.528
417.028
406.033
394.562
382.642
370.309
357.608
344.594
331.33
317.886
304.338
290.77
277.268
263.92
250.822
238.073
225.779
214.055
203.026
192.823
183.576
175.395
168.354
162.455
157.612
153.648
150.317
147.35
144.495
141.557
138.414
135.009
131.342
127.452
123.399
119.251
115.079
110.946
106.906
102.988
99.2182
63.8743
24.8883
17.7964
15.4901
14.6518
14.4725
14.6627
15.0932
15.6971
16.4364
17.2876
18.2355
19.2699
20.3838
21.5725
22.833
24.1637
25.5638
27.0333
28.5732
30.1847
31.8696
33.6299
35.4681
37.3868
39.3886
41.4764
43.6531
45.9219
48.2858
50.7481
53.3119
55.9804
58.7567
61.6441
64.6456
67.7643
71.0034
74.366
77.8551
81.4738
85.2253
89.1126
93.1388
97.307
101.62
106.082
110.694
115.461
120.385
125.47
130.717
136.129
141.711
147.463
153.389
159.491
165.771
172.231
178.874
185.701
192.715
199.917
207.309
214.893
222.671
230.645
238.819
247.19
255.753
264.51
273.462
282.607
291.941
301.461
311.159
321.027
331.052
341.224
351.481
361.797
372.157
382.544
392.941
403.326
413.674
423.958
434.152
444.229
454.163
463.922
473.478
482.799
491.854
500.612
509.042
517.116
524.804
532.081
538.921
545.304
551.213
556.633
561.555
565.974
569.886
573.293
576.2
578.613
580.536
582.011
583.059
583.689
583.912
583.741
583.187
582.263
580.978
579.34
577.355
575.026
572.348
569.263
565.761
561.836
557.485
552.702
547.482
541.815
535.692
529.103
522.035
514.475
506.408
497.822
488.706
479.051
468.853
458.113
446.836
435.032
422.72
409.925
396.684
383.04
369.046
354.763
340.26
325.61
310.896
296.199
281.606
267.204
253.084
239.337
226.059
213.356
201.34
190.137
179.885
170.724
162.777
156.119
150.742
146.522
143.234
140.577
138.24
135.955
133.528
130.846
127.871
124.617
121.132
117.483
113.738
109.964
106.218
102.537
98.9536
62.9118
24.6359
17.6308
15.3336
14.4831
14.2834
14.4496
14.8546
15.4328
16.147
16.9745
17.9005
18.9154
20.0127
21.1881
22.4393
23.7651
25.1653
26.6406
28.1925
29.8231
31.5347
33.3304
35.2134
37.1874
39.2562
41.4225
43.6907
46.065
48.5497
51.1491
53.8676
56.7094
59.6789
62.7804
66.0182
69.3965
72.9195
76.5913
80.416
84.3977
88.5402
92.8474
97.3233
101.971
106.795
111.799
116.985
122.357
127.917
133.669
139.615
145.758
152.099
158.64
165.382
172.328
179.477
186.831
194.39
202.153
210.121
218.294
226.67
235.25
244.032
253.016
262.201
271.583
281.159
290.927
300.883
311.023
321.341
331.83
342.478
353.28
364.188
375.137
386.121
397.124
408.13
419.123
430.084
440.993
451.829
462.566
473.18
483.646
493.938
504.027
513.884
523.48
532.784
541.766
550.395
558.642
566.478
573.876
580.811
587.262
593.209
598.637
603.536
607.898
611.72
615.002
617.748
619.967
621.667
622.856
623.558
623.81
623.626
623.017
621.997
620.576
618.763
616.567
613.992
611.04
607.669
603.859
599.604
594.894
589.724
584.085
577.967
571.361
564.255
556.639
548.499
539.823
530.598
520.813
510.46
499.534
488.036
475.972
463.354
450.198
436.531
422.388
407.811
392.855
377.577
362.047
346.341
330.537
314.721
298.979
283.398
268.067
253.072
238.5
224.438
210.979
198.218
186.264
175.242
165.291
156.559
149.177
143.216
138.64
135.278
132.839
130.973
129.337
127.658
125.757
123.544
121.001
118.161
115.08
111.828
108.473
105.078
101.687
98.3393
61.2046
24.1299
17.3204
15.081
14.2492
14.053
14.2161
14.6155
15.1879
15.8974
16.7225
17.6498
18.6696
19.7761
20.9658
22.2372
23.5897
25.0241
26.542
28.1456
29.838
31.6226
33.5035
35.485
37.5717
39.7686
42.0807
44.5133
47.072
49.7625
52.5906
55.562
58.6826
61.9582
65.3945
68.9972
72.772
76.7244
80.8595
85.1826
89.6987
94.4127
99.329
104.452
109.786
115.335
121.102
127.091
133.304
139.743
146.41
153.307
160.435
167.794
175.384
183.204
191.254
199.531
208.034
216.759
225.704
234.864
244.237
253.816
263.599
273.58
283.753
294.113
304.655
315.37
326.254
337.297
348.494
359.833
371.307
382.887
394.484
406.072
417.64
429.178
440.671
452.106
463.467
474.739
485.904
496.944
507.838
518.566
529.106
539.436
549.529
559.363
568.909
578.14
587.028
595.544
603.66
611.348
618.581
625.335
631.586
637.316
642.508
647.15
651.233
654.752
657.706
660.098
661.935
663.227
663.985
664.223
663.951
663.199
661.994
660.35
658.276
655.781
652.875
649.556
645.797
641.588
636.918
631.775
626.148
620.028
613.402
606.26
598.59
590.38
581.619
572.294
562.392
551.905
540.823
529.143
516.865
503.994
490.543
476.53
461.981
446.93
431.419
415.502
399.239
382.697
365.953
349.089
332.19
315.346
298.647
282.184
266.045
250.316
235.082
220.421
206.415
193.144
180.696
169.172
158.69
149.394
141.437
134.949
129.986
126.468
124.156
122.693
121.681
120.765
119.689
118.3
116.539
114.414
111.972
109.279
106.405
103.419
100.371
97.3093
58.9989
23.4362
16.9023
14.7691
13.9944
13.8367
14.031
14.4594
15.0616
15.8037
16.6653
17.6341
18.7019
19.8643
21.1189
22.4651
23.9037
25.4366
27.0668
28.7978
30.634
32.5806
34.643
36.8273
39.1398
41.5872
44.1765
46.9151
49.8102
52.8696
56.1009
59.5118
63.1101
66.9034
70.8992
75.1048
79.5273
84.1733
89.0493
94.1612
99.5147
105.115
110.967
117.074
123.441
130.071
136.965
144.126
151.555
159.251
167.213
175.442
183.934
192.686
201.695
210.956
220.464
230.211
240.191
250.397
260.82
271.451
282.28
293.297
304.492
315.854
327.372
339.034
350.83
362.747
374.776
386.899
399.113
411.399
423.652
435.815
447.888
459.864
471.731
483.48
495.099
506.578
517.906
529.07
540.06
550.861
561.46
571.843
581.995
591.898
601.536
610.888
619.933
628.649
637.012
644.996
652.575
659.725
666.419
672.632
678.343
683.53
688.177
692.268
695.794
698.748
701.126
702.929
704.161
704.831
704.948
704.525
703.576
702.115
700.157
697.721
694.825
691.479
687.682
683.428
678.711
673.523
667.849
661.677
654.994
647.785
640.037
631.739
622.878
613.44
603.414
592.789
581.555
569.706
557.236
544.146
530.443
516.137
501.248
485.803
469.835
453.388
436.513
419.271
401.731
383.97
366.071
348.121
330.213
312.442
294.9
277.681
260.873
244.564
228.832
213.753
199.397
185.832
173.126
161.355
150.612
141.012
132.7
125.836
120.542
116.84
114.583
113.449
113.015
112.855
112.629
112.112
111.193
109.849
108.111
106.04
103.708
101.187
98.5348
95.8099
56.567
22.608
16.429
14.4621
13.8005
13.7375
14.0214
14.5403
15.2377
16.0819
17.0549
18.1461
19.3496
20.6628
22.0853
23.6187
25.2657
27.0305
28.9182
30.9348
33.087
35.3823
37.8289
40.4353
43.2105
46.164
49.3054
52.6446
56.1917
59.9566
63.9495
68.1804
72.6591
77.395
82.3971
87.6737
93.2326
99.0806
105.224
111.668
118.417
125.474
132.843
140.524
148.52
156.828
165.447
174.375
183.607
193.137
202.96
213.068
223.452
234.104
245.011
256.163
267.548
279.151
290.958
302.955
315.125
327.453
339.922
352.513
365.211
377.998
390.853
403.759
416.703
429.656
442.638
455.577
468.373
480.959
493.354
505.55
517.543
529.328
540.897
552.245
563.365
574.251
584.899
595.303
605.46
615.366
625.014
634.4
643.518
652.36
660.916
669.176
677.126
684.75
692.031
698.947