/*--------------------------------*- C++ -*----------------------------------*\
| =========                 |                                                 |
| \\      /  F ield         | OpenFOAM: The Open Source CFD Toolbox           |
|  \\    /   O peration     | Version:  2.2.x                                 |
|   \\  /    A nd           | Web:      www.OpenFOAM.org                      |
|    \\/     M anipulation  |                                                 |
\*---------------------------------------------------------------------------*/
FoamFile
{
    version     2.0;
    format      ascii;
    class       volScalarField;
    location    "400";
    object      k;
}
// * * * * * * * * * * * * * * * * * * * * * * * * * * * * * * * * * * * * * //

dimensions      [0 2 -2 0 0 0 0];

internalField   nonuniform List<scalar> 
12225
(
0.773254
1.11727
1.35409
1.50337
1.59085
1.63719
1.65707
1.66042
1.65375
1.64124
1.62552
1.60826
1.59048
1.57283
1.55567
1.5392
1.52331
1.5094
0.492803
0.515897
0.52006
0.519333
0.515962
0.511058
0.505584
0.500221
0.495392
0.491326
0.488126
0.485811
0.484353
0.483696
0.483787
0.484653
0.48689
0.49039
0.412018
0.424096
0.42186
0.414169
0.404226
0.393411
0.382463
0.371811
0.361714
0.352323
0.343715
0.335917
0.328923
0.322708
0.317233
0.312463
0.308357
0.304716
0.381869
0.385949
0.386337
0.383939
0.379748
0.374467
0.368565
0.362357
0.356053
0.349801
0.343701
0.337818
0.332198
0.326867
0.321838
0.317115
0.312689
0.308556
0.375243
0.375519
0.374935
0.373413
0.371107
0.368206
0.364885
0.361288
0.357526
0.353684
0.349827
0.346002
0.342247
0.338587
0.335042
0.331623
0.32834
0.325216
0.373469
0.372204
0.370886
0.369331
0.367504
0.36543
0.363156
0.360731
0.358204
0.355615
0.352996
0.350376
0.347776
0.345215
0.342704
0.340256
0.33788
0.3356
0.372982
0.371101
0.36935
0.367627
0.365877
0.364076
0.36222
0.360316
0.358378
0.356419
0.354453
0.352492
0.350548
0.348631
0.346747
0.344904
0.343109
0.341381
0.372867
0.370792
0.36886
0.367023
0.365245
0.363499
0.361771
0.360054
0.358346
0.356651
0.354972
0.353313
0.35168
0.350076
0.348506
0.346972
0.345479
0.344045
0.372829
0.37068
0.368664
0.366759
0.364945
0.363202
0.361516
0.359877
0.358278
0.356716
0.355189
0.353697
0.35224
0.350819
0.349435
0.348088
0.346782
0.34553
0.372814
0.370635
0.368578
0.366634
0.364789
0.363033
0.361356
0.359747
0.358199
0.356707
0.355267
0.353874
0.352527
0.351224
0.349963
0.348744
0.347566
0.346443
0.372807
0.370616
0.368542
0.366578
0.364715
0.362947
0.361265
0.359662
0.358131
0.356668
0.355267
0.353924
0.352635
0.351397
0.350208
0.349064
0.347966
0.346923
0.372803
0.370607
0.368526
0.366553
0.364681
0.362904
0.361215
0.35961
0.358081
0.356625
0.355237
0.353912
0.352647
0.351438
0.350281
0.349175
0.348116
0.347115
0.3728
0.370601
0.368516
0.366539
0.364662
0.36288
0.361187
0.359578
0.358047
0.35659
0.355203
0.353882
0.352622
0.351421
0.350275
0.349181
0.348137
0.347152
0.372797
0.370597
0.36851
0.36653
0.36465
0.362865
0.361169
0.359557
0.358023
0.356564
0.355174
0.353851
0.352591
0.35139
0.350244
0.349151
0.34811
0.347129
0.372796
0.370594
0.368505
0.366523
0.364641
0.362854
0.361156
0.359541
0.358005
0.356543
0.355151
0.353826
0.352563
0.35136
0.350212
0.349118
0.348075
0.347092
0.372795
0.370592
0.368502
0.366518
0.364635
0.362846
0.361146
0.359529
0.357991
0.356527
0.355134
0.353806
0.352541
0.351335
0.350186
0.349089
0.348044
0.34706
0.372794
0.37059
0.3685
0.366515
0.364631
0.362841
0.361139
0.359521
0.357981
0.356516
0.355121
0.353792
0.352525
0.351317
0.350166
0.349068
0.348021
0.347035
0.372794
0.37059
0.368499
0.366514
0.364629
0.362838
0.361136
0.359517
0.357976
0.35651
0.355114
0.353784
0.352516
0.351307
0.350155
0.349055
0.348007
0.347021
0.372794
0.37059
0.3685
0.366515
0.36463
0.362839
0.361136
0.359517
0.357976
0.35651
0.355113
0.353782
0.352514
0.351305
0.350152
0.349052
0.348004
0.347017
0.372795
0.370591
0.368501
0.366517
0.364632
0.362842
0.361139
0.359521
0.35798
0.356514
0.355118
0.353787
0.35252
0.351311
0.350158
0.349058
0.34801
0.347023
0.372795
0.370593
0.368504
0.36652
0.364637
0.362848
0.361147
0.35953
0.357992
0.356528
0.355133
0.353805
0.352538
0.351331
0.350179
0.34908
0.348032
0.347045
0.372797
0.370596
0.368509
0.36653
0.364651
0.362868
0.361174
0.359564
0.358032
0.356574
0.355185
0.35386
0.352596
0.35139
0.350237
0.349135
0.348082
0.347088
0.3728
0.370606
0.368532
0.36657
0.364713
0.362952
0.361281
0.359691
0.358176
0.356728
0.355344
0.354018
0.352747
0.351526
0.350353
0.349225
0.348142
0.347113
0.372816
0.370662
0.368649
0.366761
0.36498
0.363288
0.361671
0.360117
0.358615
0.357161
0.355749
0.354377
0.353043
0.351745
0.350483
0.349257
0.348067
0.346926
0.372911
0.370959
0.369194
0.367544
0.365952
0.364383
0.362817
0.361245
0.359668
0.358088
0.356511
0.354942
0.353388
0.351852
0.35034
0.348856
0.347404
0.346
0.373469
0.372366
0.371364
0.370237
0.368903
0.367356
0.365626
0.363754
0.361777
0.359731
0.357644
0.355537
0.353429
0.351335
0.349266
0.347231
0.345238
0.343308
0.376461
0.378228
0.378835
0.378173
0.37655
0.374272
0.371563
0.368577
0.365421
0.36217
0.358879
0.355585
0.35232
0.349104
0.345955
0.342885
0.339903
0.337032
0.392606
0.40134
0.402163
0.399514
0.395303
0.39034
0.385012
0.379522
0.373992
0.368501
0.363104
0.357844
0.352752
0.347851
0.343154
0.338671
0.334404
0.330363
0.438299
0.449785
0.450809
0.449579
0.447831
0.445853
0.443731
0.441509
0.439225
0.436915
0.434619
0.432373
0.430208
0.428146
0.426205
0.424391
0.422689
0.421042
0.544749
0.705344
0.836385
0.946123
1.04198
1.12365
1.19165
1.24709
1.29138
1.32602
1.35248
1.3721
1.38609
1.39548
1.40117
1.40389
1.40427
1.40277
0.0125141
0.0210687
0.0267876
0.0314996
0.0365113
0.0415806
0.0473385
0.0539302
0.0609687
0.0684659
0.0763098
0.0844082
0.0927007
0.101149
0.10973
0.118433
0.127263
0.136236
0.145394
0.154682
0.164043
0.173461
0.182929
0.192439
0.201985
0.211562
0.221166
0.230792
0.240437
0.250099
0.259777
0.269468
0.279172
0.288889
0.298619
0.308364
0.318125
0.327904
0.337704
0.347526
0.357374
0.367252
0.377162
0.387109
0.397096
0.407127
0.417205
0.427334
0.437516
0.447756
0.458056
0.468417
0.478842
0.489331
0.499886
0.510506
0.52119
0.531937
0.542744
0.553606
0.56452
0.57548
0.586479
0.597508
0.608559
0.619621
0.630681
0.641728
0.652747
0.663722
0.674636
0.685472
0.696208
0.706826
0.717303
0.727616
0.737743
0.747659
0.757339
0.766759
0.775893
0.784718
0.793209
0.801342
0.809097
0.816452
0.823389
0.829892
0.835946
0.841542
0.846672
0.851332
0.855521
0.859245
0.86251
0.86533
0.867719
0.869699
0.871291
0.872523
0.873422
0.874021
0.874351
0.874447
0.874343
0.874075
0.873677
0.87318
0.872617
0.872014
0.871398
0.870789
0.870206
0.869662
0.869169
0.868733
0.868357
0.868042
0.867783
0.867574
0.867408
0.867276
0.86717
0.867084
0.867019
0.866988
0.867023
0.867198
0.867677
0.868085
0.868392
0.868576
0.868618
0.868496
0.86819
0.867689
0.866986
0.866071
0.864937
0.863586
0.862021
0.860245
0.858279
0.856142
0.853845
0.85141
0.848862
0.84622
0.843501
0.840712
0.83785
0.834904
0.831816
0.828521
0.824961
0.820894
0.816084
0.810423
0.804358
0.796265
0.794209
0.796582
0.797589
0.796511
0.793157
0.787468
0.77951
0.769414
0.757384
0.743669
0.728545
0.712279
0.695136
0.677332
0.659022
0.640265
0.620961
0.600606
0.578049
0.553218
0.0281028
0.0522156
0.0701371
0.0843404
0.0965006
0.108142
0.120089
0.132762
0.146243
0.160444
0.175245
0.190542
0.206255
0.222326
0.238707
0.255362
0.272259
0.28937
0.306668
0.324124
0.341714
0.35942
0.377228
0.395125
0.413102
0.431148
0.449254
0.467411
0.485613
0.503853
0.522127
0.54043
0.55876
0.577113
0.595489
0.613888
0.632311
0.650759
0.669235
0.687743
0.706287
0.724872
0.743505
0.762191
0.780938
0.799753
0.818643
0.837617
0.856681
0.875844
0.895112
0.914494
0.933995
0.95362
0.973376
0.993267
1.01329
1.03346
1.05377
1.07421
1.09479
1.1155
1.13633
1.15728
1.17833
1.19948
1.22069
1.24196
1.26327
1.28459
1.30589
1.32714
1.34831
1.36937
1.39027
1.41097
1.43143
1.45161
1.47145
1.49091
1.50992
1.52844
1.54642
1.56379
1.58052
1.59653
1.6118
1.62626
1.63988
1.65262
1.66444
1.67533
1.68525
1.69421
1.70218
1.70918
1.71521
1.72029
1.72446
1.72774
1.73017
1.73181
1.7327
1.73289
1.73246
1.73146
1.72995
1.72801
1.72568
1.72305
1.72015
1.71706
1.71382
1.71048
1.70709
1.70369
1.70031
1.69698
1.69374
1.6906
1.68758
1.68471
1.682
1.67947
1.67714
1.67502
1.67315
1.67155
1.66978
1.66808
1.66649
1.66502
1.66367
1.66245
1.66135
1.66038
1.65954
1.65886
1.65834
1.658
1.65788
1.65801
1.65841
1.65914
1.66025
1.66178
1.66379
1.66632
1.6694
1.67307
1.67729
1.68203
1.68715
1.69245
1.69765
1.7022
1.70569
1.70693
1.70621
1.70216
1.69572
1.68656
1.67334
1.65564
1.63333
1.60643
1.5752
1.54001
1.50139
1.45994
1.41631
1.37115
1.32509
1.27868
1.2324
1.18668
1.14185
1.09831
1.05658
1.01665
0.0426823
0.0843623
0.109325
0.128001
0.144491
0.160394
0.176533
0.193326
0.210911
0.229267
0.248308
0.267936
0.288064
0.308621
0.329547
0.350795
0.372325
0.394102
0.416097
0.438283
0.460637
0.483142
0.505782
0.528543
0.551414
0.574383
0.597442
0.620579
0.643788
0.66706
0.690391
0.713773
0.737202
0.760676
0.78419
0.807745
0.831338
0.854972
0.878646
0.902365
0.926132
0.94995
0.973827
0.997767
1.02178
1.04587
1.07004
1.09431
1.11868
1.14316
1.16777
1.1925
1.21736
1.24237
1.26753
1.29285
1.31832
1.34396
1.36977
1.39573
1.42187
1.44816
1.47462
1.50121
1.52795
1.55481
1.58178
1.60884
1.63598
1.66315
1.69034
1.71751
1.74463
1.77166
1.79855
1.82527
1.85175
1.87794
1.90379
1.92924
1.95423
1.97869
2.00255
2.02575
2.04823
2.06991
2.09074
2.11065
2.12958
2.14748
2.16429
2.17999
2.19453
2.20788
2.22003
2.23097
2.24069
2.24922
2.25656
2.26275
2.26782
2.2718
2.27476
2.27675
2.27782
2.27805
2.27749
2.27623
2.27431
2.27182
2.26882
2.26538
2.26154
2.25738
2.25294
2.24826
2.2434
2.23839
2.23327
2.22807
2.22281
2.21753
2.21224
2.20698
2.20177
2.19663
2.1916
2.18646
2.18114
2.17577
2.17039
2.16501
2.15963
2.15426
2.14892
2.14361
2.13835
2.13317
2.12811
2.12318
2.11845
2.11397
2.10978
2.10599
2.10266
2.09987
2.09773
2.09632
2.09572
2.096
2.09718
2.09923
2.10204
2.10538
2.10891
2.11183
2.11359
2.11325
2.11103
2.10595
2.09762
2.08513
2.06772
2.04493
2.01656
1.98264
1.94343
1.89939
1.85117
1.79952
1.74526
1.68922
1.63219
1.57491
1.51803
1.46214
1.40783
1.35584
1.3071
1.26313
0.0552646
0.112644
0.143666
0.166695
0.1868
0.205925
0.225038
0.244638
0.264945
0.286014
0.307808
0.330256
0.353276
0.376794
0.400743
0.42507
0.44973
0.474683
0.499899
0.525349
0.551011
0.576866
0.602896
0.629089
0.655429
0.681906
0.708508
0.735225
0.762047
0.788966
0.815973
0.843062
0.870226
0.897459
0.924758
0.952119
0.979539
1.00702
1.03456
1.06215
1.08981
1.11754
1.14533
1.1732
1.20115
1.22919
1.25732
1.28556
1.31392
1.34239
1.371
1.39975
1.42865
1.45771
1.48694
1.51634
1.54593
1.57571
1.60568
1.63585
1.66621
1.69677
1.72753
1.75848
1.78961
1.82092
1.85238
1.884
1.91573
1.94757
1.97949
2.01145
2.04342
2.07536
2.10723
2.13898
2.17055
2.2019
2.23295
2.26364
2.29391
2.32368
2.35287
2.38142
2.40923
2.43623
2.46235
2.4875
2.5116
2.5346
2.55641
2.57698
2.59626
2.6142
2.63075
2.64591
2.65965
2.67197
2.68288
2.69239
2.70052
2.70731
2.7128
2.71703
2.72006
2.72196
2.72277
2.72258
2.72146
2.71946
2.71666
2.71313
2.70894
2.70413
2.69877
2.69292
2.68661
2.6799
2.67283
2.66543
2.65774
2.64978
2.64158
2.63319
2.62461
2.61589
2.60701
2.59769
2.58805
2.57817
2.56806
2.55774
2.54722
2.53651
2.52563
2.5146
2.50344
2.49218
2.48088
2.46957
2.45831
2.44718
2.43626
2.42567
2.41551
2.40591
2.39701
2.38897
2.38192
2.37601
2.3713
2.36788
2.36565
2.36448
2.36386
2.36336
2.36258
2.36085
2.35775
2.35229
2.34351
2.33035
2.31196
2.28778
2.25748
2.22097
2.17848
2.13048
2.07765
2.02085
1.96102
1.8991
1.83604
1.77271
1.70989
1.64833
1.58878
1.53214
1.47938
1.432
0.0685407
0.136579
0.173411
0.200482
0.223805
0.245659
0.267167
0.288928
0.311251
0.334265
0.357995
0.382409
0.407447
0.433046
0.459143
0.485682
0.512615
0.539904
0.567512
0.595412
0.62358
0.651994
0.680636
0.709491
0.738543
0.767779
0.797187
0.826754
0.85647
0.886323
0.916304
0.946404
0.976614
1.00693
1.03734
1.06784
1.09842
1.1291
1.15985
1.19068
1.2216
1.2526
1.28369
1.31487
1.34614
1.37752
1.40902
1.44063
1.47237
1.50426
1.53629
1.56848
1.60085
1.6334
1.66614
1.69909
1.73225
1.76564
1.79925
1.83311
1.8672
1.90155
1.93614
1.97098
2.00606
2.04138
2.07694
2.11271
2.14869
2.18486
2.22118
2.25764
2.2942
2.33083
2.36748
2.4041
2.44064
2.47704
2.51324
2.54917
2.58475
2.6199
2.65453
2.68857
2.72191
2.75446
2.78614
2.81683
2.84646
2.87492
2.90213
2.928
2.95246
2.97542
2.99684
3.01666
3.03487
3.05144
3.06636
3.07964
3.09128
3.10129
3.10971
3.11657
3.12191
3.1258
3.12829
3.12944
3.12933
3.12802
3.12558
3.12209
3.1176
3.1122
3.10593
3.09887
3.09105
3.08253
3.07335
3.06356
3.05319
3.04227
3.03083
3.01891
3.00654
2.99374
2.98035
2.96628
2.95164
2.93648
2.92083
2.9047
2.88811
2.87106
2.85358
2.83568
2.81739
2.79874
2.7798
2.76062
2.74127
2.72183
2.7024
2.68312
2.66415
2.64566
2.62782
2.61087
2.59502
2.58049
2.56747
2.55616
2.54653
2.5386
2.53227
2.52742
2.5236
2.52016
2.51641
2.51124
2.50338
2.49156
2.47472
2.45203
2.42292
2.38711
2.3447
2.29608
2.24194
2.18317
2.12081
2.05592
1.98958
1.92279
1.85647
1.7915
1.72873
1.66914
1.6136
1.56346
0.0806863
0.156829
0.198634
0.229243
0.255394
0.279622
0.303171
0.326723
0.350657
0.375172
0.400349
0.4262
0.4527
0.479804
0.507461
0.535623
0.564243
0.593283
0.622708
0.652489
0.682599
0.713019
0.743727
0.774705
0.805939
0.837413
0.869112
0.901024
0.933134
0.965431
0.997902
1.03054
1.06333
1.09626
1.12933
1.16252
1.19584
1.22927
1.26282
1.29648
1.33024
1.36412
1.39811
1.43222
1.46644
1.5008
1.53529
1.56992
1.60471
1.63966
1.67479
1.71011
1.74562
1.78136
1.81732
1.85352
1.88998
1.9267
1.9637
2.00099
2.03858
2.07647
2.11468
2.15321
2.19205
2.23122
2.2707
2.3105
2.35059
2.39097
2.43162
2.47252
2.51362
2.55492
2.59635
2.63787
2.67944
2.72099
2.76246
2.80377
2.84483
2.88558
2.9259
2.9657
3.00487
3.04332
3.08091
3.11755
3.15311
3.18749
3.22056
3.25221
3.28232
3.31078
3.33753
3.36248
3.38559
3.40682
3.42618
3.44363
3.45918
3.47281
3.48453
3.49437
3.50237
3.50855
3.51299
3.51573
3.51684
3.5164
3.51447
3.51113
3.50644
3.50049
3.49334
3.48504
3.47565
3.46524
3.45384
3.44151
3.42827
3.41416
3.39921
3.38345
3.36691
3.34961
3.33125
3.31194
3.29175
3.27072
3.24888
3.22625
3.20284
3.17865
3.15371
3.12803
3.10164
3.07456
3.04686
3.01861
2.98989
2.96077
2.93138
2.90186
2.87242
2.84326
2.81461
2.78674
2.76
2.73468
2.71111
2.68957
2.67046
2.65417
2.64081
2.63036
2.62253
2.61673
2.61216
2.60761
2.60165
2.59274
2.57951
2.56077
2.53559
2.50339
2.464
2.41767
2.365
2.3069
2.24446
2.17888
2.11133
2.04298
1.97487
1.90802
1.84336
1.78187
1.72433
1.67177
0.0912547
0.173509
0.219429
0.253023
0.281589
0.307854
0.333149
0.358215
0.383483
0.409203
0.435504
0.46244
0.490018
0.518221
0.547015
0.576361
0.606224
0.636567
0.667358
0.69857
0.730176
0.762156
0.794487
0.827153
0.860136
0.89342
0.926988
0.960827
0.994923
1.02926
1.06382
1.09861
1.13359
1.16877
1.20413
1.23966
1.27535
1.31121
1.34721
1.38336
1.41966
1.45611
1.4927
1.52945
1.56634
1.6034
1.64062
1.67802
1.71561
1.75339
1.79139
1.82961
1.86807
1.90679
1.94578
1.98505
2.02463
2.06452
2.10475
2.14533
2.18627
2.22759
2.2693
2.3114
2.35391
2.39683
2.44017
2.48392
2.52808
2.57264
2.61758
2.6629
2.70856
2.75454
2.8008
2.8473
2.89398
2.94079
2.98765
3.03449
3.08123
3.12777
3.17401
3.21984
3.26513
3.30978
3.35364
3.39658
3.43848
3.47917
3.51846
3.55623
3.59235
3.62672
3.65922
3.68975
3.71824
3.74461
3.76878
3.79075
3.81054
3.82813
3.84349
3.85663
3.86758
3.87635
3.88299
3.88756
3.89011
3.89072
3.88946
3.8864
3.88162
3.8752
3.8672
3.8577
3.84675
3.83441
3.82073
3.80577
3.78955
3.7721
3.75347
3.73367
3.71271
3.69055
3.66694
3.64204
3.61591
3.58859
3.56011
3.53049
3.49972
3.46783
3.43483
3.40071
3.36551
3.32925
3.29198
3.25378
3.21475
3.17495
3.1345
3.09355
3.05234
3.01114
2.97018
2.92974
2.89036
2.85233
2.81624
2.78287
2.75279
2.72651
2.70446
2.68685
2.6736
2.6643
2.65818
2.65405
2.65036
2.64538
2.63733
2.62459
2.60575
2.57979
2.54616
2.50482
2.45623
2.40123
2.34095
2.27667
2.20973
2.14141
2.07293
2.00541
1.93987
1.8773
1.81837
1.76387
0.10014
0.18682
0.236029
0.272049
0.302598
0.330551
0.3573
0.383623
0.409987
0.436673
0.463849
0.491603
0.519973
0.548965
0.578565
0.608752
0.639498
0.670775
0.702557
0.734818
0.767536
0.800689
0.834258
0.868225
0.902573
0.937284
0.972343
1.00774
1.04344
1.07946
1.11575
1.15233
1.18916
1.22624
1.26356
1.3011
1.33886
1.37682
1.41499
1.45335
1.49191
1.53065
1.56959
1.60872
1.64805
1.68757
1.72731
1.76727
1.80746
1.84789
1.88858
1.92954
1.97079
2.01234
2.05421
2.09643
2.139
2.18195
2.22531
2.26907
2.31328
2.35793
2.40306
2.44867
2.49478
2.5414
2.58854
2.6362
2.68438
2.73309
2.78232
2.83205
2.88227
2.93296
2.98407
3.03558
3.08742
3.13956
3.1919
3.24439
3.29693
3.34941
3.40174
3.45378
3.50542
3.5565
3.60689
3.65643
3.70488
3.75206
3.79782
3.84202
3.88449
3.92509
3.9637
4.00017
4.03439
4.06627
4.0957
4.12262
4.14695
4.16875
4.18801
4.20473
4.21888
4.23048
4.23957
4.24619
4.25038
4.25223
4.2518
4.24917
4.24442
4.23762
4.22886
4.2182
4.20572
4.19148
4.17552
4.1579
4.13865
4.11781
4.0954
4.07146
4.046
4.01871
3.98968
3.95897
3.92666
3.89279
3.85738
3.82045
3.782
3.74205
3.70058
3.65762
3.61317
3.56724
3.51987
3.47115
3.42119
3.37006
3.31784
3.26467
3.21076
3.15656
3.10225
3.04791
2.99466
2.9429
2.89339
2.84695
2.8044
2.76654
2.73403
2.70741
2.6869
2.6724
2.66336
2.65874
2.657
2.65624
2.65434
2.64916
2.6387
2.62136
2.59604
2.56229
2.52029
2.47074
2.41476
2.35371
2.28906
2.22226
2.15467
2.08755
2.02202
1.95908
1.89937
1.8435
0.107356
0.196984
0.248719
0.286629
0.318737
0.348024
0.375928
0.403248
0.430471
0.457903
0.485733
0.514077
0.542996
0.572519
0.602652
0.633387
0.664711
0.696604
0.729047
0.762021
0.795505
0.829483
0.863936
0.898849
0.934204
0.969987
1.00618
1.04277
1.07974
1.11708
1.15477
1.1928
1.23115
1.26981
1.30877
1.34801
1.38753
1.42732
1.46736
1.50766
1.54821
1.58901
1.63005
1.67135
1.71289
1.75469
1.79675
1.83909
1.88171
1.92463
1.96787
2.01143
2.05533
2.0996
2.14425
2.18931
2.23479
2.28072
2.32711
2.374
2.4214
2.46934
2.51783
2.56689
2.61655
2.66682
2.71772
2.76925
2.82143
2.87425
2.92773
2.98185
3.03661
3.09197
3.14793
3.20444
3.26146
3.31892
3.37678
3.43494
3.49332
3.55182
3.61031
3.66867
3.72676
3.78443
3.84145
3.89758
3.95265
4.00648
4.0589
4.10971
4.15875
4.20584
4.2508
4.29348
4.33373
4.3714
4.40638
4.43856
4.46786
4.4942
4.51756
4.53803
4.55559
4.57023
4.58196
4.59081
4.59683
4.60008
4.60063
4.59856
4.59395
4.58689
4.57745
4.56572
4.55177
4.53567
4.51746
4.4972
4.47493
4.45068
4.42447
4.39633
4.36618
4.33376
4.2992
4.26258
4.22397
4.18339
4.14089
4.09648
4.05016
4.00193
3.95179
3.89975
3.8458
3.78994
3.73217
3.67257
3.61133
3.54848
3.48412
3.41828
3.35105
3.28332
3.21521
3.14702
3.07966
3.01375
2.95017
2.88984
2.83376
2.78293
2.73832
2.70076
2.6709
2.64905
2.63507
2.62825
2.62726
2.63018
2.63461
2.63789
2.63738
2.63069
2.61605
2.5924
2.55946
2.5177
2.46816
2.41225
2.35155
2.28768
2.2222
2.15651
2.09183
2.02922
1.96932
1.91269
0.112952
0.204232
0.257799
0.297106
0.330369
0.360648
0.389406
0.417459
0.445304
0.473258
0.501529
0.530247
0.559494
0.589316
0.619736
0.650762
0.68239
0.714614
0.747421
0.780799
0.814734
0.849212
0.88422
0.919744
0.95577
0.992284
1.02927
1.06672
1.10462
1.14295
1.1817
1.22085
1.2604
1.30033
1.34062
1.38127
1.42226
1.46359
1.50525
1.54723
1.58953
1.63215
1.67507
1.71832
1.76188
1.80577
1.84999
1.89455
1.93946
1.98474
2.0304
2.07645
2.12292
2.16981
2.21717
2.265
2.31332
2.36217
2.41156
2.46152
2.51208
2.56326
2.61507
2.66756
2.72074
2.77463
2.82924
2.88461
2.94074
2.99764
3.05532
3.11378
3.17301
3.233
3.29374
3.35519
3.41732
3.48006
3.54337
3.60715
3.67133
3.7358
3.80043
3.86509
3.92961
3.99371
4.05721
4.1199
4.18161
4.24213
4.30125
4.35877
4.41447
4.46816
4.51962
4.56867
4.61512
4.65879
4.69953
4.73719
4.77166
4.80286
4.83069
4.85511
4.87619
4.894
4.90851
4.91973
4.92771
4.93249
4.93415
4.93275
4.92839
4.92116
4.91113
4.89839
4.88303
4.86511
4.84469
4.82182
4.79654
4.76889
4.73888
4.70653
4.67159
4.634
4.59387
4.55128
4.50628
4.45892
4.40924
4.35725
4.30294
4.24631
4.18737
4.12611
4.06252
3.99659
3.92825
3.85752
3.78481
3.71009
3.63345
3.55502
3.47502
3.39402
3.31238
3.23057
3.14934
3.06944
2.99177
2.91733
2.84721
2.78255
2.72456
2.6744
2.63313
2.60157
2.58016
2.56873
2.56641
2.57147
2.58145
2.59328
2.60361
2.60918
2.6073
2.59609
2.57465
2.54304
2.50211
2.45327
2.39821
2.33874
2.27659
2.21334
2.15036
2.0888
2.02933
1.97255
0.116995
0.208803
0.26358
0.303839
0.337886
0.368831
0.398153
0.426676
0.454902
0.483155
0.511651
0.540532
0.569894
0.599796
0.630275
0.661351
0.693034
0.725325
0.758222
0.791719
0.82581
0.860487
0.89574
0.93156
0.967938
1.00486
1.04232
1.08031
1.11881
1.15781
1.1973
1.23727
1.27771
1.3186
1.35993
1.4017
1.44389
1.4865
1.52952
1.57294
1.61677
1.66098
1.7056
1.75061
1.79602
1.84184
1.88807
1.93473
1.98181
2.02935
2.07734
2.12581
2.17477
2.22425
2.27426
2.32483
2.37598
2.42773
2.4801
2.53313
2.58684
2.64125
2.69639
2.75229
2.80897
2.86645
2.92477
2.98394
3.04398
3.1049
3.16672
3.22944
3.29306
3.35759
3.423
3.48927
3.55637
3.62425
3.69285
3.76211
3.83192
3.90218
3.97278
4.04351
4.1141
4.1844
4.2542
4.32331
4.39152
4.4586
4.52434
4.58849
4.65082
4.71109
4.76906
4.82451
4.87722
4.92698
4.97358
5.01684
5.05661
5.09279
5.12526
5.15396
5.17882
5.19986
5.21722
5.2309
5.24092
5.24732
5.25016
5.24951
5.24547
5.23812
5.22755
5.21386
5.19712
5.17741
5.1548
5.12933
5.10104
5.06998
5.03615
4.9995
4.95971
4.91691
4.87117
4.82253
4.77109
4.71688
4.65994
4.60026
4.53786
4.47273
4.40487
4.33427
4.26093
4.18484
4.10602
4.02451
3.94055
3.85421
3.76564
3.67504
3.5827
3.48906
3.39458
3.29979
3.20539
3.11215
3.02096
2.93281
2.84882
2.77019
2.69826
2.63444
2.58015
2.53673
2.50528
2.48637
2.47984
2.48454
2.49823
2.51766
2.53885
2.55764
2.57019
2.57357
2.56598
2.54688
2.51679
2.47702
2.42935
2.37577
2.31821
2.25846
2.19807
2.13829
2.07992
2.02363
0.119566
0.210937
0.266374
0.307188
0.341686
0.372997
0.40261
0.43135
0.45972
0.488047
0.516554
0.54539
0.574658
0.604429
0.63475
0.665652
0.697155
0.729269
0.762002
0.795356
0.829331
0.863926
0.899137
0.934962
0.971394
1.00843
1.04606
1.08428
1.12308
1.16245
1.20239
1.24288
1.28392
1.3255
1.3676
1.41023
1.45338
1.49703
1.54118
1.58583
1.63098
1.67662
1.72275
1.76937
1.8165
1.86413
1.91227
1.96093
2.01011
2.05985
2.11013
2.16099
2.21244
2.26449
2.31717
2.3705
2.42449
2.47917
2.53457
2.5907
2.64759
2.70527
2.76377
2.8231
2.88331
2.9444
3.00642
3.06937
3.13328
3.19817
3.26406
3.33095
3.39885
3.46776
3.53767
3.60857
3.68044
3.75321
3.82685
3.90128
3.97642
4.05215
4.12823
4.20451
4.28083
4.35698
4.43276
4.50795
4.58235
4.65572
4.7278
4.79834
4.86708
4.93375
4.99807
5.0598
5.11868
5.17448
5.22693
5.27578
5.32088
5.36208
5.39924
5.43227
5.46111
5.48568
5.50597
5.52211
5.53419
5.54223
5.54629
5.54642
5.54272
5.53527
5.52418
5.50953
5.49141
5.4699
5.44506
5.41696
5.38562
5.3511
5.31337
5.27222
5.22755
5.17946
5.12804
5.07335
5.01543
4.95433
4.89009
4.8227
4.75219
4.67854
4.60177
4.52187
4.43885
4.35274
4.2636
4.1715
4.07663
3.9791
3.87912
3.77695
3.67291
3.56743
3.46098
3.35413
3.24755
3.14198
3.03827
2.93736
2.84033
2.74835
2.66278
2.58514
2.51708
2.46035
2.41665
2.38739
2.37337
2.37436
2.38883
2.41374
2.44476
2.47684
2.5049
2.52466
2.53313
2.52886
2.51187
2.48324
2.44479
2.39866
2.34702
2.29189
2.23501
2.17781
2.12124
2.06609
0.120763
0.210884
0.266494
0.307513
0.342164
0.373571
0.403222
0.431941
0.460229
0.488417
0.516726
0.545314
0.574288
0.603726
0.633685
0.664203
0.69531
0.727024
0.759361
0.792333
0.825945
0.860206
0.895117
0.930682
0.966902
1.00378
1.04131
1.07949
1.11832
1.1578
1.19792
1.23868
1.28007
1.3221
1.36475
1.40801
1.4519
1.4964
1.5415
1.58722
1.63354
1.68046
1.72799
1.77613
1.82489
1.87426
1.92427
1.9749
2.02618
2.07812
2.13072
2.18401
2.23799
2.29269
2.34811
2.40428
2.46121
2.51892
2.57744
2.63678
2.69696
2.75801
2.81994
2.88279
2.94658
3.01132
3.07706
3.1438
3.21157
3.28038
3.35024
3.42117
3.49319
3.56629
3.64047
3.71573
3.79203
3.86934
3.94761
4.02679
4.10671
4.1872
4.26814
4.34943
4.43094
4.51242
4.59363
4.67438
4.75445
4.83359
4.91155
4.98804
5.06277
5.13546
5.20579
5.27349
5.33825
5.39981
5.45786
5.51216
5.56248
5.60863
5.65045
5.68781
5.7206
5.74876
5.77224
5.79102
5.80516
5.81485
5.82012
5.82103
5.81767
5.81011
5.79847
5.78284
5.76331
5.73995
5.71285
5.68204
5.64759
5.60951
5.56772
5.52198
5.47235
5.41892
5.36177
5.30095
5.2365
5.16847
5.09689
5.02177
4.94313
4.86099
4.77535
4.68623
4.59368
4.49774
4.39851
4.29611
4.1907
4.08247
3.97166
3.85858
3.74358
3.6271
3.50964
3.39177
3.27413
3.15743
3.04247
2.93013
2.82137
2.71732
2.61923
2.52858
2.44709
2.37668
2.31949
2.27766
2.25302
2.24659
2.258
2.28506
2.32361
2.36795
2.41176
2.44914
2.47557
2.48837
2.48674
2.47138
2.44405
2.40702
2.3627
2.31336
2.26099
2.20724
2.15321
2.09987
0.120696
0.208892
0.264246
0.305162
0.339704
0.370968
0.400432
0.428913
0.456913
0.484761
0.512681
0.540832
0.569326
0.598247
0.627657
0.657603
0.68812
0.719237
0.750976
0.783357
0.816395
0.850104
0.884496
0.91958
0.955366
0.991859
1.02906
1.06699
1.10563
1.145
1.1851
1.22593
1.26748
1.30977
1.35279
1.39655
1.44103
1.48625
1.5322
1.57888
1.6263
1.67445
1.72335
1.77299
1.82338
1.87452
1.92643
1.97911
2.03256
2.08681
2.14185
2.1977
2.25437
2.31186
2.3702
2.42939
2.48945
2.55039
2.61221
2.67494
2.73859
2.80317
2.8687
2.93519
3.00266
3.07113
3.14064
3.21121
3.28282
3.35548
3.42921
3.50402
3.57993
3.65694
3.73505
3.81426
3.89454
3.97585
4.05817
4.1413
4.22515
4.30964
4.39468
4.48015
4.56591
4.65179
4.73756
4.82302
4.90794
4.99208
5.07516
5.15689
5.23696
5.31506
5.39085
5.46402
5.53424
5.60118
5.66453
5.72399
5.77931
5.83025
5.87659
5.91817
5.95486
5.98656
6.0132
6.03474
6.0512
6.06256
6.06901
6.07068
6.06762
6.05993
6.0477
6.03103
6.01002
5.98474
5.95528
5.92169
5.88402
5.84226
5.79617
5.74577
5.69113
5.6323
5.56936
5.50235
5.43132
5.35631
5.27737
5.19451
5.10777
5.01717
4.92274
4.82454
4.72262
4.61708
4.50805
4.39569
4.28018
4.16175
4.04071
3.91739
3.7922
3.66558
3.53806
3.41021
3.28266
3.1561
3.03128
2.90899
2.79013
2.67568
2.56678
2.46475
2.37119
2.28798
2.2174
2.16203
2.12453
2.10725
2.11141
2.13632
2.17875
2.23297
2.29161
2.34707
2.39289
2.42475
2.44067
2.44074
2.42649
2.40028
2.36475
2.32246
2.27566
2.22625
2.17557
2.12477
0.1195
0.205214
0.259932
0.300474
0.33468
0.365593
0.394672
0.422728
0.45026
0.477595
0.504958
0.53251
0.560365
0.58861
0.617313
0.646528
0.676296
0.706654
0.737634
0.76926
0.801559
0.834552
0.86826
0.902702
0.937897
0.97386
1.01059
1.04811
1.08643
1.12556
1.16551
1.20629
1.24791
1.29038
1.33371
1.37789
1.42294
1.46887
1.51566
1.56334
1.6119
1.66136
1.71171
1.76296
1.81512
1.8682
1.92219
1.97711
2.03296
2.08975
2.14749
2.20617
2.26581
2.3264
2.38796
2.45048
2.51397
2.57843
2.64386
2.71026
2.77764
2.846
2.91533
2.98565
3.05695
3.12925
3.20255
3.27686
3.35217
3.4285
3.50584
3.58421
3.66361
3.74404
3.82551
3.908
3.9915
4.07594
4.16118
4.2472
4.33397
4.42141
4.50945
4.598
4.68693
4.77608
4.86529
4.95436
5.04305
5.13113
5.21832
5.30433
5.38883
5.4715
5.55198
5.62991
5.70494
5.77671
5.84486
5.90907
5.96901
6.02441
6.07503
6.12063
6.16106
6.19617
6.22586
6.25008
6.26881
6.28204
6.28981
6.29221
6.28942
6.28154
6.26866
6.25089
6.22831
6.20102
6.1691
6.1326
6.09156
6.04584
5.9954
5.9403
5.88058
5.8163
5.74751
5.67427
5.59663
5.51463
5.42833
5.33775
5.24296
5.14399
5.04091
4.93379
4.82273
4.70787
4.58937
4.46743
4.34229
4.21422
4.08357
3.95071
3.8161
3.6802
3.54357
3.4068
3.2705
3.13535
3.00206
2.87138
2.74412
2.62114
2.50344
2.39215
2.28862
2.19454
2.11202
2.04367
1.99262
1.9622
1.95532
1.97333
2.01486
2.0751
2.14626
2.21912
2.28503
2.33753
2.37301
2.39058
2.39139
2.37778
2.35258
2.31865
2.27855
2.23445
2.18796
2.14043
0.117349
0.200115
0.253858
0.293786
0.32746
0.357848
0.386382
0.413862
0.440779
0.467461
0.494135
0.52097
0.548071
0.575523
0.603404
0.631775
0.660686
0.690181
0.720299
0.751076
0.782543
0.814733
0.847675
0.881395
0.915921
0.951275
0.987478
1.02455
1.06252
1.10141
1.14122
1.18199
1.22373
1.26644
1.31016
1.35489
1.40063
1.44742
1.49524
1.54412
1.59406
1.64507
1.69716
1.75033
1.80459
1.85994
1.91639
1.97394
2.03259
2.09234
2.15319
2.21513
2.27817
2.34229
2.40749
2.47376
2.54108
2.60944
2.67883
2.74924
2.82063
2.89301
2.96634
3.04062
3.11583
3.19195
3.26898
3.3469
3.4257
3.50536
3.58588
3.66726
3.7495
3.83259
3.91654
4.00131
4.08681
4.17302
4.25995
4.3476
4.43594
4.52496
4.6146
4.70479
4.79545
4.88645
4.97765
5.06888
5.15994
5.25059
5.34057
5.4296
5.51734
5.60346
5.68758
5.76933
5.84831
5.92413
5.99639
6.06471
6.12875
6.18816
6.24264
6.29194
6.33583
6.37412
6.40669
6.43343
6.45431
6.46929
6.47841
6.48169
6.47922
6.47111
6.45753
6.43857
6.41434
6.38493
6.35042
6.31087
6.2662
6.21645
6.16164
6.10179
6.03696
5.96718
5.89253
5.81305
5.72879
5.63983
5.54621
5.448
5.34526
5.23807
5.12653
5.01073
4.89083
4.76699
4.63943
4.50839
4.37415
4.23705
4.09746
3.95583
3.81262
3.66836
3.52362
3.37899
3.23513
3.09268
2.95235
2.81485
2.68091
2.55131
2.42691
2.30865
2.19763
2.09524
2.00322
1.92391
1.86036
1.81633
1.79597
1.80281
1.83808
1.89913
1.97886
2.06699
2.1526
2.22663
2.2833
2.32031
2.3381
2.33886
2.32556
2.30135
2.26912
2.23136
2.18995
2.14648
0.114526
0.193875
0.246359
0.285474
0.318458
0.348189
0.376059
0.402851
0.429049
0.454974
0.480853
0.506849
0.533084
0.559653
0.586636
0.614101
0.642105
0.670702
0.699938
0.729858
0.760506
0.791921
0.824144
0.85721
0.891158
0.926021
0.961833
0.998627
1.03643
1.07528
1.1152
1.15622
1.19837
1.24167
1.28614
1.3318
1.37867
1.42678
1.47612
1.52672
1.57859
1.63173
1.68614
1.74185
1.79884
1.85712
1.91668
1.97753
2.03964
2.10301
2.16763
2.23348
2.30053
2.36878
2.43818
2.50871
2.58034
2.65303
2.72675
2.80145
2.8771
2.95365
3.03105
3.10928
3.18827
3.268
3.34843
3.42951
3.51122
3.59352
3.67639
3.75981
3.84377
3.92828
4.01324
4.09863
4.18452
4.27094
4.35794
4.44554
4.53376
4.62259
4.71203
4.80206
4.89263
4.98365
5.07503
5.16663
5.25828
5.34979
5.44091
5.53137
5.62085
5.709
5.79545
5.87979
5.9616
6.04046
6.11592
6.18756
6.25497
6.31776
6.37557
6.4281
6.47505
6.5162
6.55136
6.5804
6.60323
6.61979
6.63008
6.63413
6.63198
6.62372
6.60944
6.58926
6.5633
6.53167
6.49444
6.45165