/*--------------------------------*- C++ -*----------------------------------*\
| =========                 |                                                 |
| \\      /  F ield         | OpenFOAM: The Open Source CFD Toolbox           |
|  \\    /   O peration     | Version:  2.2.x                                 |
|   \\  /    A nd           | Web:      www.OpenFOAM.org                      |
|    \\/     M anipulation  |                                                 |
\*---------------------------------------------------------------------------*/
FoamFile
{
    version     2.0;
    format      ascii;
    class       volScalarField;
    location    "400";
    object      nut;
}
// * * * * * * * * * * * * * * * * * * * * * * * * * * * * * * * * * * * * * //

dimensions      [0 2 -1 0 0 0 0];

internalField   nonuniform List<scalar> 
12225
(
3.09428e-05
3.71944e-05
4.09471e-05
4.31451e-05
4.43827e-05
4.50244e-05
4.52969e-05
4.53427e-05
4.52516e-05
4.508e-05
4.48637e-05
4.46248e-05
4.43775e-05
4.41305e-05
4.38891e-05
4.36562e-05
4.34302e-05
4.32315e-05
0.000116614
6.9369e-05
5.16061e-05
4.24158e-05
3.71549e-05
3.3922e-05
3.18299e-05
3.04311e-05
2.94817e-05
2.88392e-05
2.84155e-05
2.81533e-05
2.8014e-05
2.79701e-05
2.80019e-05
2.80934e-05
2.82307e-05
2.8374e-05
0.000365116
0.000223248
0.000162465
0.000127923
0.000106049
9.12556e-05
8.07158e-05
7.28926e-05
6.68965e-05
6.21828e-05
5.84016e-05
5.53189e-05
5.27732e-05
5.0649e-05
4.88605e-05
4.73381e-05
4.60131e-05
4.48632e-05
0.000644614
0.000479086
0.000378712
0.000313466
0.000268376
0.000235816
0.00021143
0.000192601
0.000177694
0.000165641
0.00015572
0.00014743
0.000140412
0.000134405
0.00012921
0.000124676
0.000120685
0.000117235
0.000789271
0.000696805
0.000611929
0.00054207
0.000486105
0.00044138
0.000405352
0.000375985
0.000351748
0.000331505
0.000314411
0.00029983
0.00028728
0.000276391
0.000266875
0.00025851
0.000251131
0.000244715
0.000836147
0.000802046
0.00075891
0.000713902
0.000670988
0.000631914
0.000597145
0.000566523
0.000539653
0.000516074
0.000495341
0.000477057
0.000460875
0.000446505
0.000433699
0.000422257
0.000412024
0.000402988
0.000848366
0.000838517
0.000822837
0.000802894
0.000780499
0.000757181
0.000734021
0.000711698
0.000690588
0.000670871
0.000652598
0.000635747
0.000620253
0.000606032
0.000592992
0.000581046
0.00057012
0.000560266
0.000850836
0.000847527
0.000841613
0.000833099
0.000822404
0.000810116
0.00079683
0.000783055
0.000769187
0.000755516
0.000742241
0.000729493
0.000717349
0.000705851
0.000695015
0.000684841
0.00067533
0.000666599
0.000851475
0.000850225
0.000848001
0.000844579
0.000839916
0.000834114
0.000827364
0.000819888
0.000811908
0.000803622
0.0007952
0.000786777
0.000778459
0.000770327
0.000762438
0.000754837
0.000747562
0.000740743
0.00085164
0.00085103
0.00085015
0.000848868
0.000847087
0.000844767
0.000841913
0.000838567
0.000834795
0.000830672
0.00082628
0.000821695
0.000816986
0.000812216
0.000807436
0.000802693
0.00079803
0.000793552
0.000851672
0.000851219
0.000850723
0.000850137
0.000849416
0.000848521
0.000847426
0.000846121
0.000844605
0.000842891
0.000840997
0.000838945
0.000836762
0.000834474
0.000832108
0.000829688
0.000827241
0.000824834
0.000851674
0.000851248
0.000850836
0.000850423
0.000849996
0.000849539
0.00084904
0.000848486
0.00084787
0.000847188
0.000846436
0.000845619
0.000844737
0.000843799
0.000842809
0.000841776
0.00084071
0.000839644
0.000851671
0.000851247
0.000850846
0.000850463
0.000850096
0.000849738
0.000849386
0.000849035
0.000848681
0.00084832
0.00084795
0.000847568
0.000847173
0.000846765
0.000846343
0.000845908
0.000845464
0.000845026
0.000851668
0.000851243
0.00085084
0.00085046
0.000850099
0.000849756
0.000849429
0.000849116
0.000848815
0.000848525
0.000848245
0.000847971
0.000847705
0.000847444
0.000847187
0.000846935
0.000846688
0.000846457
0.000851666
0.000851239
0.000850835
0.000850452
0.00085009
0.000849747
0.000849421
0.000849111
0.000848816
0.000848536
0.000848268
0.000848012
0.000847768
0.000847534
0.000847309
0.000847094
0.000846889
0.000846705
0.000851665
0.000851236
0.00085083
0.000850446
0.000850082
0.000849737
0.00084941
0.000849098
0.000848802
0.000848521
0.000848253
0.000847997
0.000847753
0.000847521
0.000847299
0.000847087
0.000846887
0.000846709
0.000851664
0.000851235
0.000850828
0.000850443
0.000850077
0.000849731
0.000849402
0.000849089
0.000848791
0.000848508
0.000848238
0.000847981
0.000847736
0.000847501
0.000847278
0.000847064
0.000846863
0.000846684
0.000851664
0.000851234
0.000850827
0.000850441
0.000850075
0.000849728
0.000849398
0.000849084
0.000848785
0.000848501
0.00084823
0.000847972
0.000847725
0.000847489
0.000847265
0.00084705
0.000846847
0.000846667
0.000851664
0.000851235
0.000850828
0.000850442
0.000850076
0.000849728
0.000849398
0.000849084
0.000848785
0.0008485
0.000848228
0.000847968
0.000847721
0.000847484
0.000847257
0.000847041
0.000846836
0.000846654
0.000851665
0.000851236
0.00085083
0.000850444
0.000850078
0.000849731
0.0008494
0.000849085
0.000848784
0.000848496
0.00084822
0.000847955
0.0008477
0.000847455
0.000847219
0.00084699
0.000846772
0.000846574
0.000851666
0.000851238
0.000850832
0.000850446
0.000850077
0.000849724
0.000849383
0.000849052
0.000848729
0.000848411
0.000848097
0.000847784
0.000847472
0.000847159
0.000846844
0.000846528
0.000846212
0.000845908
0.000851667
0.000851237
0.000850823
0.000850417
0.000850009
0.000849591
0.000849152
0.000848686
0.000848185
0.000847647
0.000847068
0.000846447
0.000845784
0.000845083
0.000844345
0.000843574
0.000842777
0.000841972
0.000851661
0.000851195
0.000850681
0.000850074
0.000849335
0.000848429
0.000847336
0.000846046
0.000844561
0.000842891
0.00084105
0.000839058
0.000836936
0.000834707
0.000832392
0.000830013
0.000827592
0.000825172
0.00085157
0.000850737
0.000849405
0.000847415
0.000844689
0.000841224
0.000837074
0.00083233
0.000827099
0.000821491
0.000815613
0.000809558
0.000803409
0.000797235
0.000791092
0.000785026
0.000779076
0.000773317
0.000850707
0.000847137
0.000840904
0.000832087
0.000821113
0.000808549
0.000794963
0.00078084
0.000766564
0.00075242
0.00073861
0.000725269
0.000712483
0.000700297
0.000688734
0.000677795
0.000667474
0.000657811
0.000844113
0.000825222
0.000798525
0.000767721
0.000735633
0.000704109
0.00067419
0.000646362
0.000620782
0.000597427
0.000576179
0.000556876
0.000539343
0.000523409
0.00050891
0.000495699
0.000483644
0.000472674
0.000803424
0.000727154
0.00065271
0.00058775
0.000532921
0.00048713
0.000448867
0.000416714
0.000389502
0.000366296
0.000346359
0.00032911
0.000314087
0.000300922
0.00028932
0.000279043
0.000269901
0.000261758
0.00062587
0.000466119
0.000370226
0.000306317
0.000260946
0.000227461
0.000201962
0.000182034
0.000166127
0.000153206
0.000142553
0.000133658
0.000126147
0.000119743
0.000114236
0.000109467
0.000105315
0.000101702
0.000254186
0.000158462
0.000118166
9.48447e-05
7.98488e-05
6.96458e-05
6.24002e-05
5.70831e-05
5.30815e-05
5.00093e-05
4.76123e-05
4.57177e-05
4.42043e-05
4.29853e-05
4.19972e-05
4.11928e-05
4.05367e-05
4.00084e-05
3.69327e-05
4.20256e-05
4.57632e-05
4.86729e-05
5.10791e-05
5.30431e-05
5.46246e-05
5.58809e-05
5.68645e-05
5.76221e-05
5.81941e-05
5.86147e-05
5.89127e-05
5.9112e-05
5.92323e-05
5.92898e-05
5.92977e-05
5.92661e-05
6.59964e-06
1.83539e-05
2.06882e-05
2.24289e-05
2.41387e-05
2.57494e-05
2.74635e-05
2.92962e-05
3.11309e-05
3.29695e-05
3.47858e-05
3.6563e-05
3.82941e-05
3.99771e-05
4.16133e-05
4.32061e-05
4.47601e-05
4.62818e-05
4.77799e-05
4.92535e-05
5.06925e-05
5.20971e-05
5.34688e-05
5.48091e-05
5.61194e-05
5.74008e-05
5.86549e-05
5.98826e-05
6.10854e-05
6.22642e-05
6.34202e-05
6.45545e-05
6.56681e-05
6.6762e-05
6.78372e-05
6.88948e-05
6.99356e-05
7.09607e-05
7.1971e-05
7.29674e-05
7.39507e-05
7.49218e-05
7.58815e-05
7.68307e-05
7.77699e-05
7.86999e-05
7.96215e-05
8.0535e-05
8.14412e-05
8.23406e-05
8.32334e-05
8.41203e-05
8.50013e-05
8.58769e-05
8.67472e-05
8.76123e-05
8.84722e-05
8.9327e-05
9.01766e-05
9.10208e-05
9.18593e-05
9.26918e-05
9.3518e-05
9.43372e-05
9.5149e-05
9.59526e-05
9.67473e-05
9.75324e-05
9.8307e-05
9.90701e-05
9.98208e-05
0.000100558
0.000101281
0.000101987
0.000102677
0.000103348
0.000104
0.00010463
0.000105239
0.000105823
0.000106383
0.000106916
0.000107421
0.000107898
0.000108344
0.00010876
0.000109143
0.000109493
0.00010981
0.000110093
0.000110342
0.000110556
0.000110737
0.000110883
0.000110995
0.000111076
0.000111125
0.000111144
0.000111134
0.000111098
0.000111037
0.000110953
0.000110849
0.000110726
0.000110586
0.000110433
0.000110268
0.000110094
0.000109913
0.000109727
0.000109538
0.000109347
0.000109156
0.000108966
0.000108778
0.000108593
0.00010841
0.00010823
0.000108054
0.00010788
0.000107709
0.000107539
0.000107371
0.000107202
0.000107032
0.000106861
0.000106687
0.000106514
0.000106375
0.000106236
0.00010609
0.000105937
0.000105775
0.000105603
0.000105419
0.000105222
0.000105012
0.000104788
0.000104549
0.000104296
0.000104028
0.000103745
0.000103448
0.000103139
0.000102818
0.000102487
0.000102147
0.000101801
0.000101451
0.000101096
0.00010074
0.000100382
0.000100021
9.96621e-05
9.93068e-05
9.89188e-05
9.85367e-05
9.80967e-05
9.761e-05
9.69708e-05
9.61747e-05
9.62673e-05
9.63491e-05
9.63271e-05
9.61753e-05
9.588e-05
9.54391e-05
9.48506e-05
9.41216e-05
9.3261e-05
9.22824e-05
9.11976e-05
9.00235e-05
8.87721e-05
8.74545e-05
8.60755e-05
8.46277e-05
8.30784e-05
8.13454e-05
7.9367e-05
9.89393e-06
6.12987e-05
0.000114328
0.000148221
0.000167449
0.000179293
0.000188002
0.000195941
0.000204236
0.000213165
0.000222726
0.000232837
0.000243397
0.000254309
0.000265482
0.000276838
0.000288304
0.000299819
0.000311336
0.000322834
0.000334297
0.000345707
0.000357045
0.000368295
0.000379444
0.000390477
0.000401385
0.000412158
0.000422789
0.000433272
0.000443601
0.000453774
0.000463788
0.000473644
0.000483342
0.000492884
0.000502272
0.000511511
0.000520607
0.000529564
0.000538389
0.000547091
0.000555678
0.000564157
0.00057254
0.000580834
0.000589052
0.000597202
0.000605295
0.000613342
0.000621354
0.000629339
0.000637309
0.000645273
0.000653239
0.000661218
0.000669216
0.000677242
0.000685302
0.000693401
0.000701544
0.000709734
0.000717975
0.000726267
0.00073461
0.000743002
0.00075144
0.00075992
0.000768434
0.000776977
0.000785537
0.000794103
0.000802662
0.000811198
0.000819695
0.000828133
0.000836491
0.000844747
0.000852876
0.000860852
0.000868648
0.000876235
0.000883585
0.000890667
0.000897451
0.000903907
0.000910005
0.000915715
0.00092101
0.000925863
0.000930251
0.000934153
0.000937551
0.000940431
0.000942784
0.000944606
0.000945895
0.000946657
0.0009469
0.000946639
0.000945892
0.000944681
0.000943034
0.00094098
0.000938554
0.000935794
0.000932738
0.000929428
0.000925907
0.000922216
0.000918398
0.000914495
0.000910546
0.000906589
0.00090266
0.000898791
0.000895013
0.000891354
0.000887836
0.000884479
0.000881297
0.0008783
0.000875492
0.000872871
0.000870425
0.00086813
0.000865959
0.00086388
0.000861166
0.000858511
0.00085603
0.000853741
0.000851648
0.000849757
0.000848068
0.000846585
0.000845314
0.000844261
0.000843435
0.000842844
0.000842504
0.000842426
0.000842627
0.000843135
0.000843977
0.00084518
0.000846781
0.000848813
0.000851313
0.000854309
0.000857821
0.000861866
0.000866432
0.000871486
0.000876961
0.000882629
0.000888494
0.00089388
0.000898301
0.000901367
0.00089839
0.000892637
0.000885042
0.000875734
0.000864691
0.000851889
0.000837374
0.000821249
0.000803679
0.000784872
0.000765076
0.000744538
0.00072351
0.000702218
0.000680854
0.000659563
0.000638415
0.000617368
0.000595625
0.000560557
1.21884e-05
9.5739e-05
0.000182412
0.000244533
0.000287543
0.000318207
0.000341822
0.00036202
0.000381015
0.000399972
0.000419418
0.000439529
0.00046031
0.000481688
0.000503563
0.000525827
0.000548382
0.000571138
0.00059402
0.000616969
0.000639932
0.000662861
0.000685716
0.000708458
0.000731054
0.000753475
0.000775695
0.000797693
0.000819448
0.000840947
0.000862176
0.000883126
0.000903789
0.000924161
0.000944239
0.000964025
0.000983521
0.00100273
0.00102167
0.00104033
0.00105873
0.00107689
0.00109482
0.00111252
0.00113003
0.00114735
0.00116451
0.00118151
0.00119839
0.00121516
0.00123185
0.00124846
0.00126501
0.00128154
0.00129805
0.00131456
0.00133108
0.00134764
0.00136424
0.00138089
0.00139761
0.0014144
0.00143126
0.0014482
0.00146521
0.0014823
0.00149946
0.00151668
0.00153394
0.00155124
0.00156855
0.00158586
0.00160313
0.00162034
0.00163745
0.00165443
0.00167124
0.00168784
0.00170417
0.0017202
0.00173587
0.00175112
0.00176591
0.00178016
0.00179384
0.00180687
0.0018192
0.00183078
0.00184156
0.00185148
0.0018605
0.00186858
0.00187569
0.0018818
0.00188688
0.00189094
0.00189396
0.00189595
0.00189694
0.00189693
0.00189597
0.00189409
0.00189134
0.00188777
0.00188344
0.00187841
0.00187276
0.00186655
0.00185985
0.00185273
0.00184528
0.00183754
0.0018296
0.00182151
0.00181332
0.00180509
0.00179686
0.00178867
0.00178054
0.00177251
0.00176459
0.00175678
0.00174908
0.00174149
0.00173398
0.00172654
0.00171914
0.00171139
0.00170327
0.00169521
0.00168732
0.0016796
0.00167208
0.00166475
0.00165765
0.00165076
0.00164412
0.00163775
0.00163167
0.00162592
0.00162054
0.00161559
0.00161111
0.0016072
0.00160393
0.0016014
0.00159971
0.00159898
0.00159933
0.00160087
0.0016037
0.00160791
0.00161355
0.0016206
0.00162897
0.00163833
0.00164849
0.00165845
0.00166735
0.00167423
0.00167612
0.00167399
0.00166837
0.0016592
0.00164627
0.00162941
0.00160862
0.00158406
0.00155604
0.00152499
0.00149143
0.00145591
0.00141899
0.00138118
0.0013429
0.00130447
0.00126603
0.00122742
0.00118702
0.00113343
1.38674e-05
0.000120299
0.000233845
0.000321094
0.000385974
0.000435132
0.000474212
0.000507418
0.000537624
0.000566629
0.000595461
0.000624641
0.000654389
0.000684752
0.000715689
0.00074712
0.00077895
0.000811083
0.000843428
0.000875905
0.00090844
0.000940965
0.000973421
0.00100575
0.00103792
0.00106987
0.00110157
0.00113299
0.0011641
0.00119488
0.0012253
0.00125536
0.00128503
0.00131431
0.0013432
0.00137169
0.00139978
0.00142747
0.00145478
0.00148171
0.00150828
0.00153449
0.00156036
0.00158592
0.00161117
0.00163615
0.00166086
0.00168535
0.00170963
0.00173372
0.00175765
0.00178144
0.00180512
0.00182872
0.00185224
0.00187573
0.00189919
0.00192264
0.0019461
0.00196959
0.00199312
0.00201669
0.00204032
0.002064
0.00208774
0.00211153
0.00213537
0.00215925
0.00218314
0.00220703
0.00223091
0.00225473
0.00227847
0.00230209
0.00232555
0.00234881
0.00237181
0.0023945
0.00241682
0.00243871
0.0024601
0.00248093
0.00250113
0.00252062
0.00253933
0.00255718
0.00257411
0.00259004
0.00260491
0.00261865
0.00263119
0.0026425
0.00265251
0.00266119
0.00266851
0.00267445
0.00267902
0.00268221
0.00268403
0.00268451
0.00268369
0.00268161
0.00267831
0.00267386
0.00266833
0.00266178
0.0026543
0.00264597
0.00263687
0.00262707
0.00261667
0.00260575
0.00259437
0.0025826
0.00257051
0.00255815
0.00254557
0.00253282
0.00251992
0.0025069
0.00249378
0.00248057
0.00246727
0.00245388
0.00244039
0.00242677
0.002413
0.00239869
0.00238417
0.00236964
0.00235515
0.00234076
0.00232647
0.00231231
0.0022983
0.00228448
0.00227087
0.00225753
0.00224452
0.0022319
0.00221974
0.00220815
0.00219723
0.00218712
0.00217797
0.00216995
0.00216324
0.00215806
0.00215463
0.00215318
0.00215393
0.0021571
0.00216282
0.00217123
0.00218222
0.00219554
0.00221058
0.00222649
0.00224215
0.00225626
0.00226691
0.00227368
0.00227623
0.00227397
0.0022663
0.00225278
0.00223323
0.00220773
0.00217665
0.00214059
0.00210029
0.00205658
0.00201033
0.00196232
0.00191326
0.0018637
0.00181396
0.00176394
0.00171216
0.00165185
1.54449e-05
0.00013642
0.00027328
0.000383211
0.000468238
0.000534805
0.000588744
0.00063461
0.00067571
0.000714293
0.000751794
0.000789065
0.000826566
0.000864508
0.000902957
0.000941894
0.000981256
0.00102096
0.00106092
0.00110106
0.00114127
0.0011815
0.00122166
0.0012617
0.00130156
0.00134118
0.00138052
0.00141954
0.0014582
0.00149648
0.00153434
0.00157176
0.00160874
0.00164524
0.00168127
0.00171682
0.00175188
0.00178647
0.00182057
0.0018542
0.00188737
0.00192009
0.00195238
0.00198426
0.00201575
0.00204686
0.00207763
0.00210808
0.00213823
0.00216812
0.00219776
0.00222719
0.00225643
0.00228551
0.00231446
0.0023433
0.00237205
0.00240074
0.00242938
0.002458
0.0024866
0.0025152
0.00254381
0.00257243
0.00260107
0.00262972
0.00265837
0.00268703
0.00271567
0.00274427
0.0027728
0.00280126
0.00282958
0.00285775
0.00288572
0.00291343
0.00294083
0.00296788
0.00299449
0.00302062
0.00304617
0.00307109
0.00309529
0.00311869
0.00314121
0.00316277
0.00318328
0.00320267
0.00322085
0.00323774
0.00325328
0.0032674
0.00328002
0.00329111
0.0033006
0.00330848
0.00331473
0.00331936
0.00332237
0.00332377
0.00332359
0.00332187
0.00331865
0.00331398
0.00330793
0.00330057
0.00329198
0.00328223
0.00327141
0.00325961
0.00324689
0.00323334
0.00321905
0.00320407
0.00318847
0.00317231
0.00315565
0.00313851
0.00312095
0.00310298
0.00308464
0.00306593
0.00304687
0.00302746
0.00300772
0.00298764
0.00296702
0.00294588
0.00292444
0.00290283
0.00288112
0.00285934
0.00283754
0.00281574
0.00279398
0.00277232
0.00275082
0.00272953
0.00270856
0.002688
0.00266797
0.0026486
0.00263005
0.00261251
0.0025962
0.00258136
0.00256829
0.00255728
0.00254868
0.00254287
0.00254021
0.00254111
0.00254586
0.00255482
0.00256781
0.00258463
0.00260474
0.00262733
0.00265122
0.00267497
0.00269688
0.00271574
0.00273038
0.00273957
0.00274219
0.00273737
0.00272458
0.00270374
0.00267514
0.00263948
0.00259769
0.00255086
0.00250014
0.00244665
0.00239137
0.00233512
0.00227846
0.00222155
0.00216346
0.00210143
1.6759e-05
0.000147651
0.000303474
0.0004332
0.000536427
0.000619073
0.000686967
0.000744852
0.000796314
0.000843925
0.00088944
0.000933994
0.000978278
0.00102268
0.00106739
0.00111249
0.00115795
0.00120373
0.00124977
0.00129599
0.0013423
0.00138862
0.00143489
0.00148102
0.00152696
0.00157266
0.00161805
0.00166309
0.00170774
0.00175196
0.00179572
0.00183899
0.00188176
0.001924
0.0019657
0.00200685
0.00204744
0.00208748
0.00212696
0.00216589
0.00220428
0.00224213
0.00227947
0.00231631
0.00235268
0.00238858
0.00242405
0.00245912
0.0024938
0.00252814
0.00256215
0.00259586
0.00262931
0.00266252
0.00269552
0.00272835
0.00276101
0.00279355
0.00282598
0.00285832
0.00289059
0.00292281
0.00295499
0.00298713
0.00301924
0.00305133
0.00308339
0.00311542
0.0031474
0.00317932
0.00321116
0.00324289
0.00327449
0.00330592
0.00333714
0.0033681
0.00339875
0.00342904
0.0034589
0.00348827
0.00351707
0.00354524
0.00357268
0.00359931
0.00362505
0.00364982
0.0036735
0.00369603
0.00371731
0.00373725
0.00375577
0.00377277
0.00378817
0.00380187
0.00381384
0.00382402
0.00383238
0.00383891
0.00384364
0.00384654
0.00384763
0.00384692
0.00384445
0.00384026
0.00383439
0.00382691
0.00381789
0.00380739
0.0037955
0.00378228
0.00376783
0.0037522
0.00373549
0.00371775
0.00369906
0.00367946
0.00365901
0.00363776
0.00361575
0.003593
0.00356955
0.00354541
0.00352062
0.00349517
0.00346909
0.00344238
0.00341482
0.00338662
0.00335795
0.00332889
0.00329951
0.00326987
0.00324001
0.00320999
0.00317986
0.00314968
0.00311954
0.00308951
0.00305972
0.0030303
0.0030014
0.00297318
0.00294585
0.00291964
0.00289485
0.00287179
0.00285083
0.00283239
0.00281695
0.00280504
0.00279723
0.00279412
0.00279625
0.00280397
0.00281742
0.00283655
0.00286102
0.00289011
0.00292273
0.00295736
0.00299221
0.00302546
0.00305524
0.00307962
0.00309679
0.00310527
0.00310403
0.00309264
0.00307126
0.00304053
0.00300156
0.00295567
0.00290432
0.00284894
0.00279086
0.0027312
0.00267081
0.00261014
0.00254885
0.00248629
1.7825e-05
0.000155476
0.00032624
0.000472696
0.000591924
0.000689075
0.000769787
0.000838846
0.000899995
0.000956025
0.00100892
0.00106006
0.00111033
0.00116029
0.00121026
0.00126041
0.0013108
0.00136143
0.00141226
0.00146325
0.00151431
0.00156537
0.00161636
0.00166721
0.00171786
0.00176825
0.00181831
0.00186799
0.00191726
0.00196607
0.00201439
0.00206217
0.00210941
0.00215606
0.00220213
0.00224759
0.00229243
0.00233665
0.00238025
0.00242323
0.0024656
0.00250736
0.00254853
0.00258913
0.00262917
0.00266868
0.00270767
0.00274618
0.00278423
0.00282185
0.00285906
0.00289591
0.00293242
0.00296861
0.00300453
0.0030402
0.00307565
0.00311091
0.003146
0.00318094
0.00321577
0.0032505
0.00328514
0.00331971
0.00335423
0.00338869
0.00342311
0.00345748
0.0034918
0.00352605
0.00356024
0.00359433
0.00362831
0.00366214
0.0036958
0.00372925
0.00376243
0.00379531
0.00382781
0.00385989
0.00389146
0.00392247
0.00395282
0.00398243
0.00401121
0.00403907
0.00406591
0.00409163
0.00411615
0.00413935
0.00416107
0.00418122
0.00419973
0.0042165
0.00423147
0.00424456
0.00425571
0.00426487
0.00427198
0.00427704
0.0042801
0.00428113
0.00428013
0.00427713
0.00427216
0.00426526
0.00425649
0.00424591
0.00423358
0.00421958
0.00420397
0.00418682
0.00416821
0.0041482
0.00412685
0.00410423
0.00408038
0.00405535
0.00402919
0.00400192
0.00397359
0.00394422
0.00391384
0.00388246
0.0038501
0.00381674
0.00378229
0.00374697
0.00371092
0.00367421
0.00363694
0.00359915
0.00356092
0.0035223
0.00348337
0.0034442
0.00340488
0.00336551
0.00332623
0.00328719
0.00324859
0.0032106
0.00317347
0.00313745
0.0031029
0.00307022
0.00303985
0.00301227
0.00298817
0.00296818
0.00295313
0.00294377
0.00294081
0.00294488
0.00295644
0.00297579
0.00300286
0.00303722
0.00307792
0.00312351
0.00317207
0.00322131
0.0032687
0.00331153
0.00334716
0.00337329
0.00338819
0.00339088
0.00338117
0.00335961
0.00332737
0.003286
0.00323728
0.003183
0.00312485
0.00306431
0.00300253
0.0029403
0.00287775
0.00281519
1.86749e-05
0.000160676
0.000342797
0.000502965
0.000635885
0.0007458
0.000838013
0.000917233
0.000987261
0.00105101
0.00111064
0.0011677
0.00122323
0.00127797
0.00133234
0.00138662
0.00144094
0.00149537
0.00154991
0.00160453
0.00165918
0.00171379
0.00176831
0.00182267
0.0018768
0.00193065
0.00198415
0.00203726
0.00208992
0.00214209
0.00219374
0.00224482
0.00229532
0.00234519
0.00239443
0.00244302
0.00249094
0.00253819
0.00258476
0.00263065
0.00267587
0.00272042
0.00276432
0.00280757
0.00285021
0.00289224
0.00293369
0.00297459
0.00301496
0.00305484
0.00309424
0.00313321
0.00317178
0.00320997
0.00324783
0.00328538
0.00332266
0.00335969
0.00339652
0.00343316
0.00346964
0.00350599
0.00354223
0.00357838
0.00361447
0.0036505
0.00368648
0.00372243
0.00375834
0.00379423
0.00383008
0.00386588
0.00390163
0.0039373
0.00397288
0.00400832
0.0040436
0.00407868
0.0041135
0.00414801
0.00418214
0.00421583
0.004249
0.00428156
0.00431343
0.0043445
0.00437468
0.00440387
0.00443189
0.00445861
0.00448394
0.00450775
0.00452993
0.00455037
0.00456898
0.00458565
0.00460028
0.0046128
0.00462314
0.00463124
0.00463703
0.00464055
0.0046418
0.00464076
0.00463744
0.00463187
0.00462408
0.00461412
0.00460204
0.0045879
0.00457177
0.0045537
0.00453377
0.00451204
0.00448856
0.0044634
0.00443661
0.00440824
0.00437833
0.00434692
0.00431406
0.00427976
0.00424406
0.004207
0.0041686
0.00412874
0.00408756
0.00404523
0.00400185
0.00395753
0.00391234
0.00386636
0.00381966
0.00377232
0.00372442
0.00367604
0.00362728
0.00357825
0.00352908
0.00347996
0.00343111
0.00338273
0.00333507
0.00328839
0.00324307
0.00319964
0.00315855
0.00312032
0.00308586
0.00305593
0.00303144
0.00301331
0.00300253
0.00300005
0.00300673
0.00302329
0.00305012
0.00308723
0.00313403
0.00318931
0.00325116
0.00331699
0.00338366
0.00344765
0.00350533
0.00355333
0.00358895
0.00361038
0.00361686
0.0036087
0.00358702
0.00355359
0.0035105
0.00345997
0.00340407
0.00334469
0.00328334
0.00322116
0.00315869
0.00309672
1.93387e-05
0.000163748
0.000354055
0.000525051
0.000669331
0.000790176
0.000892452
0.000980692
0.00105867
0.00112935
0.001195
0.00125729
0.00131741
0.00137618
0.00143419
0.00149177
0.00154915
0.00160645
0.00166372
0.00172096
0.00177815
0.00183525
0.0018922
0.00194896
0.00200545
0.00206163
0.00211743
0.00217282
0.00222773
0.00228212
0.00233595
0.0023892
0.00244181
0.00249378
0.00254507
0.00259566
0.00264555
0.00269472
0.00274317
0.00279089
0.0028379
0.00288418
0.00292976
0.00297464
0.00301886
0.00306241
0.00310533
0.00314765
0.00318938
0.00323056
0.00327123
0.00331141
0.00335114
0.00339045
0.00342939
0.00346797
0.00350625
0.00354426
0.00358202
0.00361958
0.00365697
0.00369421
0.00373134
0.00376839
0.00380537
0.00384232
0.00387926
0.00391619
0.00395314
0.00399012
0.00402713
0.00406417
0.00410125
0.00413836
0.00417549
0.00421261
0.00424971
0.00428675
0.0043237
0.00436051
0.00439713
0.00443348
0.00446951
0.00450512
0.00454023
0.00457474
0.00460852
0.00464142
0.00467331
0.00470405
0.00473352
0.00476157
0.00478806
0.00481285
0.0048358
0.00485678
0.00487567
0.00489234
0.00490671
0.00491866
0.00492813
0.00493504
0.00493936
0.00494111
0.00494026
0.00493682
0.00493079
0.00492222
0.00491113
0.00489758
0.00488162
0.00486331
0.00484271
0.00481988
0.00479488
0.00476776
0.00473859
0.00470741
0.00467426
0.0046392
0.00460226
0.00456347
0.00452288
0.0044805
0.00443636
0.00439041
0.00434284
0.00429377
0.00424333
0.00419161
0.00413871
0.00408471
0.0040297
0.00397376
0.00391699
0.00385947
0.00380131
0.00374261
0.0036835
0.00362416
0.00356488
0.00350588
0.00344737
0.00338961
0.00333293
0.00327808
0.00322551
0.00317579
0.00312981
0.00308841
0.00305259
0.00302348
0.00300227
0.00299024
0.00298866
0.00299875
0.00302151
0.00305756
0.00310698
0.00316906
0.00324218
0.00332373
0.00341015
0.00349709
0.0035798
0.00365362
0.00371448
0.00375943
0.00378683
0.00379645
0.0037893
0.00376726
0.00373277
0.00368849
0.00363696
0.00358053
0.00352113
0.00346025
0.00339883
0.00333796
1.98397e-05
0.000165056
0.000360744
0.000539852
0.000693193
0.000823091
0.000933906
0.00102993
0.00111482
0.00119156
0.00126244
0.00132923
0.00139321
0.00145531
0.00151619
0.00157629
0.0016359
0.00169519
0.00175428
0.00181319
0.00187195
0.00193052
0.00198887
0.00204696
0.00210475
0.00216217
0.00221919
0.00227574
0.00233179
0.00238728
0.00244219
0.00249648
0.0025501
0.00260304
0.00265528
0.00270678
0.00275755
0.00280756
0.00285682
0.00290531
0.00295305
0.00300003
0.00304627
0.00309178
0.00313658
0.00318068
0.00322412
0.00326692
0.0033091
0.0033507
0.00339175
0.00343229
0.00347235
0.00351198
0.0035512
0.00359006
0.0036286
0.00366685
0.00370487
0.00374267
0.00378032
0.00381783
0.00385525
0.00389262
0.00392996
0.00396731
0.00400469
0.00404214
0.00407968
0.00411733
0.00415511
0.00419303
0.00423112
0.00426936
0.00430777
0.00434635
0.00438507
0.00442393
0.0044629
0.00450194
0.00454101
0.00458006
0.00461903
0.00465783
0.00469637
0.00473455
0.00477222
0.00480925
0.00484549
0.00488079
0.00491498
0.00494789
0.00497936
0.00500919
0.00503723
0.0050633
0.00508725
0.00510891
0.00512814
0.00514481
0.00515881
0.00517004
0.00517841
0.00518385
0.00518635
0.00518591
0.0051825
0.00517615
0.00516686
0.00515469
0.00513968
0.00512187
0.00510133
0.00507811
0.00505227
0.00502387
0.00499296
0.0049596
0.00492382
0.00488569
0.00484524
0.00480251
0.00475754
0.00471037
0.00466096
0.00460943
0.00455592
0.00450057
0.00444348
0.00438478
0.00432456
0.00426292
0.00419996
0.00413577
0.00407046
0.00400411
0.00393685
0.00386879
0.00379999
0.0037306
0.00366109
0.00359161
0.0035224
0.00345375
0.00338603
0.00331983
0.00325567
0.00319418
0.00313616
0.00308251
0.00303427
0.00299264
0.00295899
0.00293482
0.00292177
0.00292156
0.00293584
0.00296606
0.00301318
0.0030774
0.00315783
0.00325227
0.00335707
0.00346728
0.00357696
0.00367989
0.0037703
0.00384359
0.00389681
0.0039289
0.00394048
0.00393347
0.00391064
0.00387513
0.00383004
0.00377823
0.00372211
0.0036636
0.003604
0.0035447
2.01953e-05
0.000164889
0.000363486
0.000548169
0.000708328
0.000845382
0.000963154
0.00106563
0.00115631
0.00123813
0.00131338
0.00138385
0.00145092
0.00151557
0.00157854
0.00164035
0.00170135
0.00176178
0.00182177
0.00188142
0.00194076
0.0019998
0.00205853
0.00211691
0.00217491
0.00223249
0.00228961
0.00234622
0.00240228
0.00245775
0.0025126
0.00256679
0.0026203
0.00267309
0.00272514
0.00277644
0.00282697
0.00287672
0.0029257
0.00297389
0.0030213
0.00306793
0.00311381
0.00315894
0.00320334
0.00324704
0.00329006
0.00333242
0.00337416
0.00341532
0.00345592
0.00349601
0.00353563
0.00357481
0.0036136
0.00365204
0.00369017
0.00372804
0.0037657
0.00380317
0.00384052
0.00387778
0.00391499
0.00395221
0.00398945
0.00402678
0.00406422
0.00410181
0.00413959
0.00417759
0.00421585
0.00425437
0.0042932
0.00433236
0.00437185
0.0044117
0.0044519
0.00449246
0.00453337
0.0045746
0.00461613
0.00465791
0.0046999
0.00474203
0.00478424
0.00482639
0.00486835
0.00490996
0.00495105
0.00499143
0.00503093
0.00506934
0.00510644
0.00514204
0.00517593
0.00520788
0.0052377
0.00526519
0.00529016
0.00531244
0.00533187
0.0053483
0.00536163
0.00537175
0.00537858
0.00538208
0.00538221
0.00537898
0.00537238
0.00536245
0.00534922
0.00533273
0.00531304
0.00529021
0.00526428
0.00523533
0.0052034
0.00516855
0.00513083
0.0050903
0.00504698
0.00500094
0.00495221
0.00490081
0.00484677
0.00479026
0.00473141
0.00467032
0.00460713
0.00454198
0.00447498
0.00440623
0.00433584
0.00426391
0.00419056
0.0041159
0.00404005
0.00396314
0.00388529
0.00380668
0.00372764
0.00364838
0.00356916
0.00349027
0.00341212
0.00333518
0.00325997
0.00318712
0.00311736
0.00305156
0.00299074
0.00293608
0.00288898
0.00285105
0.00282417
0.00281041
0.00281203
0.00283132
0.00287032
0.0029305
0.00301223
0.00311436
0.0032338
0.00336541
0.00350227
0.00363647
0.00376011
0.00386639
0.00395049
0.00400999
0.00404482
0.00405676
0.00404885
0.00402475
0.00398819
0.00394266
0.00389111
0.00383594
0.00377889
0.00372159
2.04202e-05
0.000163489
0.000362819
0.000550721
0.000715523
0.000857828
0.000980914
0.00108842
0.00118367
0.00126947
0.00134809
0.00142133
0.0014906
0.00155694
0.00162114
0.00168378
0.00174527
0.00180589
0.00186583
0.00192522
0.00198413
0.00204258
0.0021006
0.00215816
0.00221525
0.00227185
0.00232791
0.00238341
0.00243831
0.00249257
0.00254617
0.00259908
0.00265127
0.00270272
0.00275341
0.00280334
0.00285248
0.00290083
0.0029484
0.00299518
0.00304118
0.00308641
0.00313088
0.00317462
0.00321764
0.00325998
0.00330165
0.00334269
0.00338314
0.00342303
0.0034624
0.00350129
0.00353975
0.00357781
0.00361552
0.00365293
0.00369009
0.00372704
0.00376383
0.00380051
0.00383713