/*--------------------------------*- C++ -*----------------------------------*\
| =========                 |                                                 |
| \\      /  F ield         | OpenFOAM: The Open Source CFD Toolbox           |
|  \\    /   O peration     | Version:  2.2.x                                 |
|   \\  /    A nd           | Web:      www.OpenFOAM.org                      |
|    \\/     M anipulation  |                                                 |
\*---------------------------------------------------------------------------*/
FoamFile
{
    version     2.0;
    format      ascii;
    class       volScalarField;
    location    "400";
    object      p;
}
// * * * * * * * * * * * * * * * * * * * * * * * * * * * * * * * * * * * * * //

dimensions      [0 2 -2 0 0 0 0];

internalField   nonuniform List<scalar> 
12225
(
-1.96367
-4.66863
-5.51684
-5.75693
-5.92166
-6.06374
-6.17865
-6.27445
-6.35962
-6.43844
-6.51291
-6.58434
-6.65378
-6.72207
-6.78974
-6.85624
-6.91885
-6.89388
-5.75215
-6.10717
-6.2185
-6.17366
-6.18126
-6.231
-6.29044
-6.35136
-6.41367
-6.47704
-6.54082
-6.60468
-6.66865
-6.73294
-6.79779
-6.86358
-6.93548
-7.05857
-5.59923
-5.44439
-5.64665
-5.78186
-5.90589
-6.03238
-6.14601
-6.2453
-6.33478
-6.41759
-6.49543
-6.56958
-6.64114
-6.71111
-6.78049
-6.85093
-6.92788
-7.03013
-5.51473
-5.50382
-5.77683
-5.94568
-6.05816
-6.16008
-6.25055
-6.3301
-6.40308
-6.47234
-6.53919
-6.60442
-6.66875
-6.73284
-6.79753
-6.8644
-6.93734
-7.02503
-5.55101
-5.60023
-5.81297
-5.95012
-6.04351
-6.13357
-6.21942
-6.2987
-6.37329
-6.44488
-6.51425
-6.58189
-6.64834
-6.71419
-6.78022
-6.84769
-6.91878
-6.99564
-5.62498
-5.67559
-5.83646
-5.96059
-6.05412
-6.14393
-6.22983
-6.30942
-6.38396
-6.45504
-6.52351
-6.58999
-6.65504
-6.71925
-6.78329
-6.84796
-6.91419
-6.98156
-5.6903
-5.73247
-5.85986
-5.97425
-6.06611
-6.1526
-6.23522
-6.31241
-6.38509
-6.45456
-6.5216
-6.58673
-6.65043
-6.71312
-6.77525
-6.83713
-6.89888
-6.95885
-5.74148
-5.77836
-5.88519
-5.98976
-6.07792
-6.16088
-6.24054
-6.31575
-6.38704
-6.45535
-6.52132
-6.58539
-6.64789
-6.70916
-6.76941
-6.82873
-6.88685
-6.94192
-5.78485
-5.81802
-5.90909
-6.0044
-6.08854
-6.16822
-6.24516
-6.31847
-6.38832
-6.45541
-6.52023
-6.58313
-6.64436
-6.70413
-6.76254
-6.81948
-6.87452
-6.92591
-5.82992
-5.85935
-5.93586
-6.02142
-6.10077
-6.17673
-6.25058
-6.32158
-6.38965
-6.45519
-6.51857
-6.58002
-6.6397
-6.6977
-6.75401
-6.80839
-6.86039
-6.90848
-5.87589
-5.90146
-5.96521
-6.04095
-6.11474
-6.18649
-6.25682
-6.32508
-6.39096
-6.45461
-6.51622
-6.5759
-6.63372
-6.68967
-6.74365
-6.79537
-6.84439
-6.88952
-5.92175
-5.94359
-5.99651
-6.06273
-6.13035
-6.19744
-6.26387
-6.32898
-6.39227
-6.45366
-6.51315
-6.57075
-6.62642
-6.68007
-6.73154
-6.78056
-6.82676
-6.86927
-5.96635
-5.98476
-6.0287
-6.08605
-6.14721
-6.20929
-6.27152
-6.33312
-6.39346
-6.45222
-6.50927
-6.56448
-6.61774
-6.6689
-6.71778
-6.76414
-6.80771
-6.84786
-6.00825
-6.0237
-6.06032
-6.10978
-6.16454
-6.22146
-6.27931
-6.33714
-6.39422
-6.45007
-6.5044
-6.55699
-6.60766
-6.65622
-6.7025
-6.7463
-6.78744
-6.82548
-6.04563
-6.05864
-6.08946
-6.13221
-6.18103
-6.23292
-6.2864
-6.34039
-6.39406
-6.44682
-6.49827
-6.5481
-6.5961
-6.64206
-6.68581
-6.72722
-6.76614
-6.80228
-6.07611
-6.08723
-6.11366
-6.15105
-6.19476
-6.2421
-6.29151
-6.34183
-6.39217
-6.44187
-6.49045
-6.53757
-6.58296
-6.62643
-6.66782
-6.70702
-6.74395
-6.77838
-6.09639
-6.10619
-6.12959
-6.16313
-6.20297
-6.24669
-6.29274
-6.33994
-6.38737
-6.43433
-6.48033
-6.52499
-6.56804
-6.60929
-6.64861
-6.68591
-6.72114
-6.75412
-6.10146
-6.11062
-6.13257
-6.16425
-6.20211
-6.24385
-6.28793
-6.33319
-6.37872
-6.42383
-6.46801
-6.51089
-6.55223
-6.59183
-6.62958
-6.66542
-6.69931
-6.7311
-6.09107
-6.10024
-6.12232
-6.15418
-6.19215
-6.2338
-6.27759
-6.32239
-6.36732
-6.41171
-6.45509
-6.49712
-6.53757
-6.57629
-6.61318
-6.6482
-6.68132
-6.71244
-6.06967
-6.07925
-6.10264
-6.1364
-6.17619
-6.21923
-6.26399
-6.30945
-6.35477
-6.39931
-6.44265
-6.4845
-6.52465
-6.56299
-6.59946
-6.63402
-6.66667
-6.6973
-6.04043
-6.05056
-6.07631
-6.1136
-6.15664
-6.20217
-6.24885
-6.29579
-6.34222
-6.38755
-6.43142
-6.47361
-6.51396
-6.55239
-6.58886
-6.62337
-6.65594
-6.6865
-6.0057
-6.01599
-6.04519
-6.08782
-6.13527
-6.18393
-6.23305
-6.28194
-6.32983
-6.3762
-6.42081
-6.4635
-6.50418
-6.54278
-6.5793
-6.61374
-6.64614
-6.67639
-5.96751
-5.97652
-6.01067
-6.06098
-6.11389
-6.16615
-6.21819
-6.26948
-6.31922
-6.36703
-6.41277
-6.45635
-6.49773
-6.53688
-6.5738
-6.60853
-6.64115
-6.6716
-5.92776
-5.93238
-5.97358
-6.03362
-6.09203
-6.1478
-6.20276
-6.2562
-6.30735
-6.3561
-6.40253
-6.44663
-6.4884
-6.52784
-6.56496
-6.59977
-6.63227
-6.66222
-5.88768
-5.88387
-5.93903
-6.0111
-6.07396
-6.13358
-6.19278
-6.24969
-6.30341
-6.35411
-6.40203
-6.44726
-6.48985
-6.52989
-6.56743
-6.60251
-6.63516
-6.66538
-5.84463
-5.81525
-5.9004
-5.98807
-6.05001
-6.10791
-6.16672
-6.2235
-6.27738
-6.32869
-6.37755
-6.42395
-6.46784
-6.50925
-6.54819
-6.58459
-6.61826
-6.64852
-5.83852
-5.72357
-5.86281
-5.99275
-6.07497
-6.14494
-6.20949
-6.26733
-6.3198
-6.36857
-6.41441
-6.45762
-6.4984
-6.5369
-6.57322
-6.60737
-6.63922
-6.66845
-5.93584
-5.60451
-5.67977
-5.78127
-5.87175
-5.96655
-6.05656
-6.13695
-6.2091
-6.27484
-6.3351
-6.39048
-6.44153
-6.48872
-6.53248
-6.57309
-6.61053
-6.64412
-6.2346
-6.29952
-6.33167
-6.25758
-6.22315
-6.23423
-6.26225
-6.29585
-6.33292
-6.37223
-6.41235
-6.45223
-6.49126
-6.52912
-6.56565
-6.60089
-6.63492
-6.66892
-2.54026
-4.73392
-5.53134
-5.75053
-5.88407
-6.00225
-6.09878
-6.1777
-6.24599
-6.30739
-6.36344
-6.41498
-6.46266
-6.50703
-6.54856
-6.58782
-6.6255
-6.66643
-7.66239
-7.66309
-7.66535
-7.66826
-7.67121
-7.6743
-7.67801
-7.68292
-7.6892
-7.69672
-7.7055
-7.71557
-7.72692
-7.73954
-7.75336
-7.76834
-7.7844
-7.80148
-7.81945
-7.83816
-7.85751
-7.8774
-7.89776
-7.91848
-7.93949
-7.96071
-7.98205
-8.00344
-8.02481
-8.04611
-8.06727
-8.08823
-8.10895
-8.12937
-8.14944
-8.16913
-8.18839
-8.20717
-8.22545
-8.24317
-8.2603
-8.27679
-8.29261
-8.3077
-8.32201
-8.3355
-8.34811
-8.35977
-8.37042
-8.37999
-8.3884
-8.39558
-8.40142
-8.40584
-8.40874
-8.41001
-8.40953
-8.40719
-8.40286
-8.3964
-8.38768
-8.37654
-8.36285
-8.34644
-8.32715
-8.30484
-8.27934
-8.25048
-8.21813
-8.18213
-8.14233
-8.0986
-8.05081
-7.99884
-7.9426
-7.88201
-7.817
-7.74754
-7.6736
-7.5952
-7.51236
-7.42517
-7.33371
-7.23811
-7.13852
-7.03514
-6.92819
-6.81791
-6.70461
-6.58859
-6.47018
-6.34974
-6.22764
-6.10425
-5.97995
-5.85511
-5.73012
-5.60533
-5.48108
-5.35768
-5.23541
-5.11452
-4.9952
-4.8776
-4.76183
-4.64794
-4.5359
-4.42565
-4.31702
-4.20982
-4.10374
-3.99842
-3.89341
-3.78818
-3.68213
-3.57457
-3.46475
-3.35183
-3.23491
-3.11302
-2.98508
-2.84998
-2.70657
-2.55369
-2.39019
-2.21478
-2.02607
-1.82265
-1.60326
-1.36676
-1.11204
-0.838083
-0.543932
-0.228752
0.108175
0.467402
0.849284
1.25399
1.68148
2.13145
2.60335
3.09639
3.60949
4.14131
4.69022
5.25431
5.83143
6.41913
7.01471
7.61531
8.21796
8.81955
9.41693
10.0068
10.5858
11.1507
11.6984
12.2263
12.7314
13.2159
13.6796
14.1155
14.5202
14.893
15.233
15.5399
15.8137
16.0546
16.2636
16.442
16.5919
16.7156
16.816
16.8965
16.9612
17.0147
17.0635
17.1165
17.1947
17.3111
-7.65642
-7.65847
-7.66105
-7.66316
-7.66425
-7.66482
-7.66583
-7.66811
-7.67203
-7.67757
-7.68466
-7.69325
-7.70331
-7.71476
-7.72755
-7.74159
-7.7568
-7.77307
-7.79031
-7.80837
-7.82715
-7.84654
-7.86645
-7.88677
-7.90742
-7.92831
-7.94936
-7.97049
-7.99163
-8.01272
-8.03368
-8.05446
-8.07501
-8.09528
-8.11521
-8.13476
-8.15389
-8.17256
-8.19073
-8.20836
-8.2254
-8.24182
-8.25757
-8.27261
-8.28689
-8.30036
-8.31297
-8.32466
-8.33536
-8.345
-8.35352
-8.36084
-8.36686
-8.37149
-8.37464
-8.3762
-8.37606
-8.37411
-8.37022
-8.36425
-8.35607
-8.34554
-8.3325
-8.3168
-8.29828
-8.27679
-8.25217
-8.22426
-8.19289
-8.15793
-8.11921
-8.07661
-8.02997
-7.97919
-7.92416
-7.86479
-7.801
-7.73276
-7.66002
-7.5828
-7.5011
-7.415
-7.32456
-7.2299
-7.13117
-7.02854
-6.92222
-6.81245
-6.69952
-6.58372
-6.46538
-6.34486
-6.22252
-6.09874
-5.9739
-5.84838
-5.72257
-5.59684
-5.47154
-5.34701
-5.22354
-5.1014
-4.98081
-4.86196
-4.74496
-4.6299
-4.51678
-4.40554
-4.29607
-4.18816
-4.08155
-3.97589
-3.87075
-3.76563
-3.65993
-3.55298
-3.44403
-3.33226
-3.21675
-3.09655
-2.97057
-2.83771
-2.69683
-2.54682
-2.38651
-2.21457
-2.02949
-1.82986
-1.61447
-1.38221
-1.13196
-0.86265
-0.573339
-0.263182
0.0685476
0.422428
0.798838
1.19795
1.61976
2.064
2.53011
3.01733
3.52463
4.05068
4.5939
5.1524
5.72403
6.30645
6.89701
7.49293
8.09131
8.68905
9.28287
9.86932
10.4452
11.0079
11.5551
12.0858
12.5956
13.0824
13.5459
13.9819
14.3883
14.7638
15.1077
15.4193
15.6985
15.9454
16.1609
16.3463
16.5032
16.634
16.7416
16.8293
16.901
16.9615
17.0173
17.0765
17.16
17.2563
-7.63962
-7.6451
-7.65151
-7.6552
-7.6563
-7.65645
-7.65691
-7.65845
-7.66143
-7.66595
-7.672
-7.67957
-7.6886
-7.69903
-7.71079
-7.72379
-7.73796
-7.75319
-7.76938
-7.78643
-7.80424
-7.82269
-7.8417
-7.86117
-7.881
-7.90112
-7.92144
-7.94188
-7.96237
-7.98284
-8.00323
-8.02347
-8.04351
-8.0633
-8.08278
-8.10192
-8.12066
-8.13897
-8.1568
-8.17411
-8.19087
-8.20703
-8.22254
-8.23738
-8.25148
-8.26479
-8.27728
-8.28887
-8.29951
-8.30913
-8.31766
-8.32502
-8.33113
-8.3359
-8.33924
-8.34103
-8.34117
-8.33955
-8.33605
-8.33052
-8.32285
-8.31287
-8.30045
-8.28543
-8.26766
-8.24697
-8.22321
-8.19621
-8.16582
-8.13188
-8.09424
-8.05275
-8.00726
-7.95766
-7.90383
-7.84567
-7.7831
-7.71607
-7.64452
-7.56845
-7.48787
-7.40281
-7.31336
-7.2196
-7.12167
-7.01973
-6.91399
-6.80467
-6.69203
-6.57638
-6.45804
-6.33735
-6.21468
-6.0904
-5.96492
-5.83863
-5.71192
-5.58519
-5.45881
-5.33312
-5.20845
-5.08509
-4.96329
-4.84326
-4.72516
-4.60908
-4.49506
-4.38308
-4.27305
-4.16478
-4.05804
-3.95249
-3.84772
-3.74324
-3.63848
-3.53276
-3.42535
-3.31542
-3.20207
-3.08433
-2.96114
-2.83136
-2.69387
-2.5476
-2.39138
-2.22373
-2.04306
-1.84802
-1.63749
-1.4103
-1.16531
-0.901461
-0.617764
-0.313365
0.012465
0.360313
0.73058
1.12346
1.53895
1.97683
2.43655
2.91733
3.41815
3.93773
4.47446
5.02644
5.59157
6.1675
6.75161
7.34114
7.93312
8.52433
9.11127
9.69042
10.2592
10.8162
11.3595
11.8873
12.3959
12.8844
13.3514
13.7925
14.2053
14.5882
14.9402
15.2607
15.5493
15.8061
16.0316
16.227
16.3939
16.5346
16.6517
16.7485
16.8288
16.8973
16.9603
17.024
17.1077
17.1754
-7.61786
-7.62661
-7.63805
-7.64547
-7.64919
-7.65132
-7.65316
-7.65545
-7.65866
-7.66307
-7.6688
-7.67589
-7.68434
-7.6941
-7.70514
-7.71737
-7.73071
-7.74509
-7.76041
-7.77658
-7.7935
-7.81108
-7.82924
-7.84787
-7.86689
-7.88623
-7.9058
-7.92552
-7.94533
-7.96515
-7.98492
-8.00458
-8.02408
-8.04335
-8.06236
-8.08105
-8.09939
-8.11732
-8.13481
-8.15182
-8.1683
-8.18422
-8.19953
-8.21418
-8.22814
-8.24135
-8.25376
-8.26531
-8.27594
-8.28559
-8.29418
-8.30165
-8.3079
-8.31285
-8.31641
-8.31847
-8.31892
-8.31765
-8.31454
-8.30944
-8.30224
-8.29278
-8.28091
-8.26649
-8.24935
-8.22933
-8.20628
-8.18002
-8.15039
-8.11723
-8.08038
-8.03969
-7.99501
-7.94621
-7.89316
-7.83576
-7.77392
-7.70758
-7.63668
-7.56119
-7.48113
-7.39652
-7.30742
-7.21392
-7.11615
-7.01427
-6.90847
-6.79898
-6.68606
-6.57001
-6.45115
-6.32983
-6.20641
-6.08131
-5.95492
-5.82766
-5.69995
-5.57219
-5.44477
-5.31807
-5.19244
-5.06817
-4.94555
-4.8248
-4.70611
-4.58958
-4.47529
-4.36323
-4.25333
-4.14542
-4.03927
-3.93458
-3.83092
-3.72783
-3.62472
-3.52093
-3.41572
-3.30825
-3.19763
-3.08289
-2.96292
-2.83661
-2.70286
-2.56061
-2.4086
-2.24516
-2.06872
-1.87809
-1.67211
-1.44959
-1.20938
-0.950377
-0.671588
-0.372129
-0.0512602
0.291615
0.656917
1.04486
1.45545
1.88851
2.3435
2.81962
3.31583
3.8309
4.36323
4.91088
5.47176
6.04357
6.62358
7.20903
7.79667
8.38325
8.96539
9.54012
10.1064
10.662
11.204
11.731
12.2398
12.7292
13.1978
13.6416
14.0582
14.446
14.8037
15.1307
15.4263
15.6906
15.9239
16.1272
16.302
16.4503
16.5748
16.6786
16.7653
16.8392
16.906
16.9697
17.0468
17.0884
-7.59767
-7.60893
-7.62481
-7.63625
-7.64315
-7.6478
-7.65161
-7.65535
-7.65956
-7.66459
-7.67065
-7.67785
-7.68624
-7.6958
-7.70651
-7.71832
-7.73116
-7.74497
-7.75967
-7.77517
-7.7914
-7.80827
-7.82571
-7.84362
-7.86193
-7.88056
-7.89945
-7.91851
-7.93768
-7.95689
-7.97609
-7.9952
-8.01419
-8.03299
-8.05157
-8.06986
-8.08783
-8.10544
-8.12265
-8.13941
-8.15568
-8.17143
-8.1866
-8.20116
-8.21506
-8.22824
-8.24065
-8.25225
-8.26296
-8.27273
-8.28147
-8.28913
-8.2956
-8.30082
-8.30467
-8.30705
-8.30787
-8.30698
-8.30429
-8.29964
-8.2929
-8.28393
-8.27258
-8.25869
-8.2421
-8.22264
-8.20016
-8.17447
-8.14542
-8.11282
-8.07651
-8.03634
-7.99215
-7.94379
-7.89114
-7.83409
-7.77254
-7.70641
-7.63565
-7.56022
-7.48013
-7.39538
-7.30605
-7.21222
-7.11402
-7.0116
-6.90516
-6.79493
-6.68117
-6.56419
-6.44431
-6.3219
-6.19735
-6.07106
-5.94349
-5.81505
-5.68621
-5.55737
-5.42895
-5.30135
-5.17493
-5.05002
-4.92692
-4.80586
-4.68704
-4.5706
-4.45661
-4.34509
-4.23596
-4.12909
-4.02423
-3.92108
-3.81923
-3.7182
-3.6174
-3.51617
-3.41375
-3.3093
-3.20191
-3.09057
-2.9742
-2.85165
-2.72188
-2.58379
-2.43593
-2.27649
-2.10406
-1.91758
-1.71582
-1.49753
-1.26155
-1.00678
-0.732183
-0.436868
-0.120074
0.218809
0.58022
0.964387
1.37135
1.80091
2.25258
2.72553
3.2187
3.73092
4.2606
4.80573
5.36424
5.93387
6.51167
7.09487
7.68001
8.26421
8.84493
9.41988
9.98691
10.5432
11.0861
11.6138
12.1235
12.6138
13.0831
13.5283
13.947
14.3379
14.6994
15.0309
15.3315
15.6012
15.8403
16.0494
16.23
16.384
16.5138
16.6223
16.7131
16.7899
16.8575
16.918
16.9855
17.0057
-7.58333
-7.59634
-7.61518
-7.6299
-7.6397
-7.64682
-7.65267
-7.65805
-7.66351
-7.66947
-7.67616
-7.68377
-7.69236
-7.70196
-7.71257
-7.72417
-7.7367
-7.75012
-7.76435
-7.77934
-7.79502
-7.81131
-7.82813
-7.84543
-7.86312
-7.88114
-7.89942
-7.91789
-7.93649
-7.95516
-7.97384
-7.99248
-8.01101
-8.0294
-8.0476
-8.06556
-8.08323
-8.10059
-8.11758
-8.13418
-8.15032
-8.16598
-8.18111
-8.19566
-8.20958
-8.22283
-8.23535
-8.24709
-8.25798
-8.26796
-8.27695
-8.28488
-8.29167
-8.29723
-8.30145
-8.30423
-8.30546
-8.30502
-8.30278
-8.2986
-8.29234
-8.28386
-8.27301
-8.25961
-8.24352
-8.22455
-8.20253
-8.1773
-8.14866
-8.11645
-8.08048
-8.0406
-7.99664
-7.94844
-7.89589
-7.83884
-7.77721
-7.7109
-7.63986
-7.56404
-7.48344
-7.39809
-7.30803
-7.21336
-7.11421
-7.01073
-6.90314
-6.79166
-6.67657
-6.55818
-6.43683
-6.31291
-6.18683
-6.05904
-5.92999
-5.80015
-5.67
-5.53998
-5.41054
-5.28208
-5.15498
-5.02961
-4.90625
-4.78518
-4.66659
-4.55064
-4.43741
-4.32692
-4.21911
-4.11384
-4.01086
-3.90985
-3.81042
-3.71206
-3.61418
-3.5161
-3.41704
-3.31615
-3.21249
-3.10503
-2.99266
-2.87426
-2.7488
-2.61509
-2.47141
-2.31598
-2.14763
-1.96527
-1.76762
-1.55341
-1.32145
-1.0706
-0.799846
-0.50825
-0.195038
0.140418
0.49857
0.879658
1.28375
1.71066
2.15991
2.63065
3.12178
3.63221
4.16044
4.70422
5.26152
5.83017
6.40688
6.98912
7.57356
8.15819
8.74047
9.31689
9.88549
10.4435
10.9883
11.5176
12.029
12.5207
12.9911
13.4376
13.8583
14.2515
14.6162
14.9512
15.2559
15.53
15.7736
15.9874
16.1726
16.3308
16.4645
16.5763
16.6695
16.7473
16.814
16.8698
16.927
16.9294
-7.57749
-7.59121
-7.61144
-7.62817
-7.64008
-7.64914
-7.6567
-7.66354
-7.67019
-7.67708
-7.68447
-7.69257
-7.70146
-7.71122
-7.72185
-7.73335
-7.74569
-7.75883
-7.77272
-7.78731
-7.80253
-7.81834
-7.83466
-7.85144
-7.8686
-7.8861
-7.90386
-7.92183
-7.93994
-7.95815
-7.97639
-7.99462
-8.01279
-8.03085
-8.04875
-8.06646
-8.08393
-8.10112
-8.11799
-8.13451
-8.15062
-8.16629
-8.18147
-8.19611
-8.21017
-8.22359
-8.23631
-8.24829
-8.25946
-8.26975
-8.27909
-8.28739
-8.29458
-8.30056
-8.30523
-8.30848
-8.31019
-8.31024
-8.30849
-8.30481
-8.29906
-8.29107
-8.2807
-8.26777
-8.25212
-8.23357
-8.21194
-8.18705
-8.1587
-8.12672
-8.09091
-8.05111
-8.00715
-7.95886
-7.90611
-7.84877
-7.78673
-7.71988
-7.64818
-7.57158
-7.49006
-7.40366
-7.31243
-7.21646
-7.11589
-7.01089
-6.90168
-6.78849
-6.67161
-6.55136
-6.42811
-6.30228
-6.17434
-6.04477
-5.91402
-5.78258
-5.65096
-5.51965
-5.38912
-5.25982
-5.13213
-5.00643
-4.88303
-4.76219
-4.64414
-4.52904
-4.41697
-4.30796
-4.20194
-4.09877
-3.99818
-3.89987
-3.8034
-3.70827
-3.61386
-3.51947
-3.42429
-3.32746
-3.22801
-3.12488
-3.01692
-2.90306
-2.78225
-2.65313
-2.5137
-2.3624
-2.19828
-2.02011
-1.82659
-1.61642
-1.3884
-1.14135
-0.874236
-0.586114
-0.276182
0.0562073
0.411517
0.789982
1.19172
1.61658
2.06406
2.53331
3.02313
3.53262
4.06029
4.60362
5.16053
5.72915
6.30591
6.88889
7.47533
8.06186
8.64627
9.2253
9.79653
10.3572
10.9047
11.4364
11.9502
12.444
12.916
13.3642
13.7866
14.182
14.5492
14.8871
15.1952
15.4729
15.7202
15.9377
16.1265
16.288
16.4244
16.5383
16.6327
16.7104
16.7748
16.8251
16.8724
16.86
-7.57968
-7.59331
-7.61366
-7.63125
-7.6444
-7.65477
-7.66357
-7.67152
-7.67913
-7.6868
-7.6948
-7.70334
-7.71253
-7.72245
-7.73312
-7.74457
-7.75676
-7.76968
-7.78329
-7.79755
-7.81241
-7.82782
-7.84372
-7.86007
-7.8768
-7.89386
-7.91119
-7.92875
-7.94647
-7.96431
-7.98222
-8.00014
-8.01804
-8.03587
-8.05358
-8.07114
-8.08851
-8.10564
-8.1225
-8.13905
-8.15524
-8.17103
-8.18637
-8.20121
-8.21551
-8.22921
-8.24225
-8.25458
-8.26613
-8.27684
-8.28662
-8.29539
-8.30307
-8.30956
-8.31475
-8.31853
-8.32078
-8.32137
-8.32016
-8.31701
-8.31177
-8.30428
-8.29438
-8.2819
-8.26666
-8.24847
-8.22714
-8.20249
-8.17431
-8.14241
-8.1066
-8.06669
-8.02251
-7.9739
-7.9207
-7.86278
-7.80001
-7.7323
-7.65959
-7.58183
-7.49901
-7.41115
-7.31833
-7.22064
-7.11823
-7.01127
-6.89998
-6.7846
-6.66543
-6.54284
-6.4173
-6.28929
-6.15928
-6.02773
-5.89514
-5.762
-5.62882
-5.49611
-5.36441
-5.23423
-5.10599
-4.98009
-4.85683
-4.73648
-4.61927
-4.50535
-4.39483
-4.2877
-4.18392
-4.0833
-3.9856
-3.89047
-3.79748
-3.70607
-3.61563
-3.52541
-3.4346
-3.3423
-3.24749
-3.14908
-3.04593
-2.93697
-2.82111
-2.69668
-2.56161
-2.41466
-2.25492
-2.08105
-1.89172
-1.68562
-1.4615
-1.21819
-0.954606
-0.669798
-0.362939
-0.0333639
0.319396
0.695566
1.09535
1.51863
1.96488
2.43317
2.92223
3.43135
3.95911
4.5026
5.0597
5.62937
6.20821
6.79313
7.38201
7.97164
8.55944
9.14224
9.71732
10.2819
10.8331
11.3683
11.8853
12.3818
12.856
13.3061
13.7304
14.1277
14.4969
14.8371
15.1477
15.4282
15.6784
15.8988
16.0902
16.254
16.3923
16.5073
16.6019
16.6783
16.7396
16.7841
16.8223
16.7974
-7.58882
-7.60174
-7.62123
-7.6387
-7.65228
-7.66331
-7.67283
-7.68149
-7.68974
-7.69795
-7.70638
-7.71524
-7.72464
-7.73466
-7.74535
-7.75673
-7.76879
-7.78152
-7.79489
-7.80886
-7.82341
-7.83849
-7.85405
-7.87004
-7.88642
-7.90314
-7.92014
-7.93739
-7.95483
-7.9724
-7.99008
-8.00781
-8.02555
-8.04326
-8.0609
-8.07844
-8.09582
-8.11301
-8.12998
-8.14668
-8.16306
-8.17908
-8.1947
-8.20986
-8.22452
-8.23861
-8.25208
-8.26487
-8.27691
-8.28812
-8.29844
-8.30777
-8.31602
-8.32309
-8.32888
-8.33325
-8.33609
-8.33725
-8.33661
-8.33402
-8.32931
-8.32232
-8.31288
-8.30082
-8.28594
-8.26805
-8.24694
-8.22242
-8.19429
-8.16233
-8.12635
-8.08616
-8.04157
-7.9924
-7.9385
-7.87972
-7.81594
-7.74706
-7.673
-7.59373
-7.50924
-7.41955
-7.32475
-7.22495
-7.12027
-7.01088
-6.89697
-6.77882
-6.6569
-6.5317
-6.40368
-6.27328
-6.141
-6.00733
-5.87279
-5.73789
-5.60315
-5.46909
-5.33624
-5.20514
-5.07633
-4.95027
-4.8273
-4.70766
-4.59158
-4.47919
-4.37057
-4.26574
-4.1646
-4.06698
-3.97261
-3.88113
-3.79205
-3.70484
-3.61881
-3.53321
-3.44719
-3.35981
-3.27003
-3.1767
-3.0787
-2.97499
-2.8643
-2.74458
-2.61398
-2.47161
-2.31639
-2.14694
-1.96186
-1.75984
-1.53962
-1.3
-1.03986
-0.758235
-0.454284
-0.127325
0.223111
0.597219
0.995347
1.41742
1.86278
2.33042
2.8189
3.32764
3.85577
4.40034
4.95881
5.52986
6.11089
6.6988
7.29115
7.88487
8.47715
9.06485
9.64501
10.2147
10.7709
11.3109
11.8321
12.3323
12.8095
13.262
13.6883
14.0873
14.4581
14.8
15.1124
15.3949
15.6471
15.8695
16.0627
16.228
16.3672
16.4824
16.5762
16.6507
16.7083
16.7469
16.7765
16.7413
-7.60344
-7.61521
-7.6331
-7.64964
-7.66295
-7.67403
-7.68378
-7.69273
-7.70128
-7.70977
-7.71843
-7.72744
-7.73693
-7.74697
-7.75762
-7.76889
-7.7808
-7.79334
-7.80649
-7.82022
-7.8345
-7.8493
-7.86458
-7.88031
-7.89642
-7.91289
-7.92967
-7.94671
-7.96396
-7.9814
-7.99896
-8.01662
-8.03433
-8.05205
-8.06974
-8.08737
-8.1049
-8.12228
-8.13948
-8.15645
-8.17315
-8.18953
-8.20554
-8.22113
-8.23625
-8.25085
-8.26485
-8.2782
-8.29082
-8.30264
-8.31358
-8.32354
-8.33243
-8.34014
-8.34657
-8.35157
-8.35504
-8.35681
-8.35676
-8.35473
-8.35054
-8.34404
-8.33505
-8.32336
-8.30878
-8.29111
-8.27014
-8.24566
-8.21744
-8.18528
-8.14898
-8.10831
-8.0631
-8.01316
-7.95832
-7.89842
-7.83334
-7.76297
-7.68725
-7.60613
-7.51962
-7.42776
-7.3306
-7.22825
-7.12077
-7.00825
-6.89116
-6.77001
-6.64523
-6.51725
-6.38653
-6.25354
-6.11881
-5.98287
-5.84627
-5.70956
-5.57329
-5.438
-5.30419
-5.17239
-5.04312
-4.91691
-4.79425
-4.67549
-4.56079
-4.45024
-4.3439
-4.24173
-4.14364
-4.04943
-3.95881
-3.87138
-3.78664
-3.70401
-3.62279
-3.54219
-3.46133
-3.37922
-3.29477
-3.20682
-3.11427
-3.01606
-2.9106
-2.79557
-2.6696
-2.53198
-2.3814
-2.21644
-2.03564
-1.83769
-1.62133
-1.38532
-1.12853
-0.849959
-0.548768
-0.224268
0.123984
0.496067
0.892341
1.31304
1.75746
2.22456
2.71299
3.22176
3.75003
4.29553
4.85581
5.42907
6.01286
6.60431
7.20078
7.79927
8.39684
8.99033
9.57662
10.1526
10.7151
11.2611
11.788
12.2931
12.7745
13.2303
13.659
14.0599
14.4321
14.7751
15.0886
15.3721
15.6256
15.8491
16.0432
16.209
16.3483
16.4629
16.5552
16.627
16.6806
16.7133
16.7351
16.6911
-7.62192
-7.6322
-7.64796
-7.66296
-7.67541
-7.68604
-7.69556
-7.70443
-7.71297
-7.72148
-7.73015
-7.73915
-7.7486
-7.75856
-7.76909
-7.78022
-7.79195
-7.8043
-7.81723
-7.83074
-7.84481
-7.85939
-7.87447
-7.89
-7.90594
-7.92225
-7.93891
-7.95585
-7.97305
-7.99045
-8.00803
-8.02575
-8.04355
-8.06142
-8.07929
-8.09715
-8.11495
-8.13265
-8.1502
-8.16757
-8.1847
-8.20155
-8.21807
-8.2342
-8.24989
-8.26508
-8.2797
-8.29369
-8.30697
-8.31947
-8.33108
-8.34173
-8.35131
-8.3597
-8.36679
-8.37245
-8.37655
-8.37894
-8.37948
-8.37799
-8.37431
-8.36827
-8.35965
-8.34828
-8.33394
-8.3164
-8.29546
-8.27089
-8.24246
-8.20995
-8.17314
-8.13182
-8.08578
-8.03484
-7.9788
-7.91752
-7.85085
-7.77871
-7.70101
-7.61773
-7.52889
-7.43449
-7.3345
-7.22885
-7.11779
-7.00192
-6.88167
-6.75743
-6.6296
-6.49863
-6.365
-6.22925
-6.09193
-5.95361
-5.81489
-5.67636
-5.53862
-5.4022
-5.26763
-5.13543
-5.00609
-4.88009
-4.7579
-4.64001
-4.52677
-4.41831
-4.31456
-4.21543
-4.12077
-4.03035
-3.94385
-3.86084
-3.78081
-3.70312
-3.62704
-3.55174
-3.47632
-3.39973
-3.32084
-3.23851
-3.15166
-3.05907
-2.95864
-2.84832
-2.72718
-2.59437
-2.44849
-2.28808
-2.11169
-1.9179
-1.70546
-1.47314
-1.21976
-0.944332
-0.645994
-0.324047
0.0219871
0.392233
0.786779
1.20588
1.64911
2.11551
2.60388
3.1131
3.64205
4.18875
4.751
5.32675
5.9136
6.50882
7.1097
7.71328
8.31656
8.91636
9.50945
10.0926
10.6625
11.2159
11.7499
12.2616
12.7486
13.209
13.6412
14.0444
14.418
14.7618
15.0757
15.3596
15.6132
15.8369
16.031
16.1965
16.335
16.4483
16.5385
16.6071
16.6562
16.6831
16.6977
16.6462
-7.64259
-7.65118
-7.66448
-7.6775
-7.68863
-7.69839
-7.70732
-7.71578
-7.72403
-7.73231
-7.7408
-7.74963
-7.7589
-7.76869
-7.77904
-7.78997
-7.80151
-7.81365
-7.8264
-7.83972
-7.85362
-7.86805
-7.88299
-7.8984
-7.91426
-7.93053
-7.94717
-7.96413
-7.98139
-7.9989
-8.01662
-8.03452
-8.05255
-8.07069
-8.08888
-8.1071
-8.12529
-8.14342
-8.16145
-8.17932
-8.19699
-8.2144
-8.23152
-8.24828
-8.26462
-8.28048
-8.29579
-8.31048
-8.32446
-8.33767
-8.34999
-8.36134
-8.37161
-8.38069
-8.38844
-8.39475
-8.39946
-8.40244
-8.40352
-8.40253
-8.3993
-8.39364
-8.38534
-8.37419
-8.35998
-8.34247
-8.32144
-8.29664
-8.26784
-8.23481
-8.19731
-8.15514
-8.10806
-8.05587
-7.9984
-7.93546
-7.86694
-7.79274
-7.71279
-7.62703
-7.53548
-7.43786
-7.33407
-7.22472
-7.11027
-6.9911
-6.86756
-6.74003
-6.60896
-6.47484
-6.33819
-6.19958
-6.05961
-5.9189
-5.77808
-5.63778
-5.49864
-5.36117
-5.22592
-5.0935
-4.9644
-4.83904
-4.71782
-4.60115
-4.48943
-4.38302
-4.28201
-4.1862
-4.09532
-4.00907
-3.92708
-3.84887
-3.7739
-3.70149
-3.63088
-3.56121
-3.49151
-3.42069
-3.34762
-3.27118
-3.19026
-3.10327
-3.00777
-2.9023
-2.78626
-2.65844
-2.51736
-2.36159
-2.18968
-2.00017
-1.79175
-1.56318
-1.3133
-1.04109
-0.74569
-0.426385
-0.082664
0.285701
0.678796
1.09669
1.53898
2.00487
2.49327
3.00305
3.5329
4.08097
4.64522
5.22352
5.81345
6.41241
7.01765
7.62625
8.23522
8.84138
9.44149
10.0322
10.6103
11.1721
11.7146
12.2344
12.7289
13.1955
13.6327
14.0393
14.4149
14.7595
15.0734
15.3568
15.6098
15.8326
16.0258
16.1901
16.327
16.4382
16.5255
16.5905
16.635
16.6561
16.664
16.6063
-7.66389
-7.6707
-7.68137
-7.69212
-7.70163
-7.7102
-7.71824
-7.72601
-7.73373
-7.74158
-7.7497
-7.75822
-7.7672
-7.77672
-7.78682
-7.79753
-7.80885
-7.8208
-7.83337
-7.84656
-7.86033
-7.87467
-7.88956
-7.90495
-7.92083
-7.93715
-7.95389
-7.97099
-7.98843
-8.00616
-8.02415
-8.04236
-8.06074
-8.07927
-8.0979
-8.11658
-8.13528
-8.15394
-8.17253
-8.191
-8.20928
-8.22734
-8.24512
-8.26255
-8.27959
-8.29615
-8.31217
-8.32757
-8.34226
-8.35617
-8.36919
-8.38121
-8.39214
-8.40185
-8.41021
-8.4171
-8.42236
-8.42585
-8.42739
-8.42682
-8.42394
-8.41855
-8.41045
-8.39941
-8.38519
-8.36757
-8.34629
-8.32109
-8.29174
-8.25801
-8.21963
-8.17639
-8.12804
-8.07438
-8.01521
-7.95038
-7.87976
-7.80327
-7.72081
-7.63211
-7.53672
-7.43501
-7.32769
-7.21503
-7.09722
-6.97454
-6.84747
-6.71644
-6.58194
-6.4445
-6.30468
-6.16311
-6.02042
-5.87727
-5.73432
-5.59223
-5.45166
-5.3132
-5.17745
-5.04502
-4.91641
-4.79206
-4.67234
-4.55754
-4.44795
-4.34387
-4.24559
-4.15318
-4.06638
-3.98468
-3.90762
-3.83465
-3.76515
-3.69843
-3.63367
-3.56998
-3.50632
-3.44159
-3.37466
-3.30443
-3.2296
-3.14797
-3.05748
-2.9573
-2.84658
-2.72389
-2.58776
-2.4367
-2.26926
-2.08397
-1.87951
-1.65462
-1.40814
-1.13904
-0.846431
-0.529602
-0.188022
0.178596
0.570361
0.987239
1.42883
1.89441
2.38296
2.89336
3.42421
3.97373
4.53993
5.12066
5.71353
6.31597
6.92524
7.53849
8.15273
8.76486
9.37167
9.96988
10.5561
11.1269
11.6787
12.208
12.7117
13.1867
13.6308
14.0425
14.4212
14.7672
15.081
15.3634
15.6149
15.836
16.0272
16.1894
16.3239
16.4322
16.5161
16.577
16.6166
16.6322
16.6338
16.5707
-7.68447
-7.68952
-7.69754
-7.70591
-7.71358
-7.72074
-7.72765
-7.73452
-7.74149
-7.74872
-7.75631
-7.76437
-7.77295
-7.78213
-7.79192
-7.80236
-7.81346
-7.82523
-7.83766
-7.85074
-7.86445
-7.87877
-7.89368
-7.90915
-7.92514
-7.94162
-7.95856
-7.97591
-7.99364
-8.01171
-8.03007
-8.0487
-8.06754
-8.08656
-8.10571
-8.12494
-8.14422
-8.16348
-8.18269
-8.20179
-8.22073
-8.23946
-8.25791
-8.27602
-8.29373
-8.31097
-8.32766
-8.34372
-8.35906
-8.37359
-8.38722
-8.39983
-8.41131
-8.42155
-8.43041
-8.43775
-8.44343
-8.44729
-8.44915
-8.44884
-8.44616
-8.4409
-8.43283
-8.42172
-8.40734
-8.38945
-8.36777
-8.34205
-8.312
-8.27738
-8.23795
-8.19344
-8.14362
-8.08828
-8.02723
-7.96033
-7.88741
-7.8083
-7.72239
-7.6294
-7.53009
-7.42489
-7.31404
-7.19775
-7.07628
-6.94993
-6.81916
-6.68446
-6.54638
-6.40549
-6.26241
-6.11781
-5.97236
-5.82676
-5.68172
-5.53794
-5.3961
-5.25686
-5.12084
-4.98866
-4.86085
-4.73787
-4.62008
-4.50775
-4.40107
-4.30018
-4.20524
-4.11639
-4.03366
-3.95676
-3.88499
-3.81765
-3.75405
-3.69342
-3.63487
-3.57746
-3.52013
-3.46179
-3.4013
-3.33749
-3.26849
-3.19203
-3.10686
-3.01225
-2.90694
-2.78944
-2.65825
-2.51187
-2.34884
-2.16769
-1.96707
-1.74573
-1.5025
-1.23632
-0.94631
-0.63174
-0.292078
0.0729896
0.463586
0.879632
1.32073
1.78617
2.27501
2.78607
3.31796
3.8689
4.43695
5.01992
5.61546
6.221
6.83384
7.45115
8.06999
8.68733
9.30005
9.90497
10.4988
11.0781
11.6394
12.1789
12.6931
13.1784
13.6317
14.0509
14.4348
14.7834
15.0977
15.3789
15.6283
15.8467
16.035
16.1941
16.3254
16.4301
16.51
16.5664
16.601
16.6111
16.6068
16.5391
-7.7033
-7.70669
-7.71219
-7.71817
-7.72391
-7.72949
-7.73508
-7.74083
-7.74685
-7.75327
-7.76016
-7.76761
-7.77568
-7.78441
-7.79384
-7.80398
-7.81485
-7.82644
-7.83875
-7.85177
-7.86548
-7.87985
-7.89487
-7.91049
-7.92669
-7.94342
-7.96065
-7.97834
-7.99645
-8.01494
-8.03376
-8.05288
-8.07224
-8.0918
-8.11152
-8.13134
-8.15121
-8.17109
-8.19091
-8.21064
-8.2302
-8.24954
-8.2686
-8.28732
-8.30562
-8.32344
-8.34069
-8.35728
-8.37314
-8.38816
-8.40224
-8.41527
-8.42715
-8.43774
-8.44693
-8.45456
-8.46048
-8.46454
-8.46655
-8.46633
-8.46367
-8.45836
-8.45015
-8.43882
-8.4241
-8.40574
-8.38348
-8.35704
-8.32611
-8.29044
-8.24974
-8.20377
-8.1523
-8.09512
-8.03202
-7.96289
-7.88705
-7.80366
-7.71336
-7.61679
-7.51404
-7.40528
-7.2907
-7.17057
-7.04522
-6.91501
-6.78043
-6.64201
-6.50032
-6.356
-6.20971
-6.06216
-5.91408
-5.76622
-5.61931
-5.4741
-5.33131
-5.19162
-5.05568
-4.92413
-4.7975
-4.67626
-4.56081
-4.45139
-4.34818
-4.25124
-4.16055
-4.0761
-3.99783
-3.92564
-3.85919
-3.79774
-3.74035
-3.68611
-3.63407
-3.5832
-3.53245
-3.48074
-3.42687
-3.36922
-3.30559
-3.23445
-3.155
-3.06603
-2.96611
-2.85373
-2.72738
-2.58556
-2.42678
-2.2496
-2.05265
-1.83465
-1.59443
-1.33094
-1.04328
-0.730726
-0.392732
-0.0289809
0.360649
0.776053
1.21683
1.6823
2.17151
2.68329
3.21621
3.76851
4.33826
4.92326
5.52113
6.12935
6.74521
7.3659
7.98853
8.61014
9.22771
9.83817
10.4384
11.0252
11.5951
12.1446
12.6697
13.1665
13.6312
14.0604
14.4521
14.8056
15.1217
15.4023
15.6493
15.8644
16.0489
16.204
16.331
16.4314
16.5068
16.5584
16.5878
16.5926
16.5825
16.511
-7.71978
-7.72169
-7.72491
-7.72862
-7.73238
-7.73624
-7.74031
-7.74472
-7.74956
-7.75494
-7.76094
-7.76762
-7.77503
-7.78321
-7.79218
-7.80196
-7.81256
-7.82396
-7.83616
-7.84914
-7.86287
-7.87733
-7.8925
-7.90832
-7.92478
-7.94181
-7.95939
-7.97746
-7.99599
-8.01493
-8.03423
-8.05385
-8.07373
-8.09382
-8.11407
-8.13443
-8.15485
-8.17526
-8.19561
-8.21585
-8.23592
-8.25574
-8.27527
-8.29443
-8.31315
-8.33135
-8.34896
-8.36588
-8.38203
-8.39731
-8.41163
-8.42486
-8.4369
-8.44763
-8.45691
-8.46461
-8.47056
-8.47461
-8.47656
-8.47622
-8.47339
-8.46784
-8.45931
-8.44757
-8.43235
-8.41337
-8.39034
-8.36298
-8.33097
-8.29404
-8.2519
-8.20434
-8.15112
-8.09207
-8.02658
-7.95349
-7.87306
-7.78599
-7.69241
-7.59244
-7.48616
-7.37373
-7.25538
-7.13141
-7.00218
-6.86814
-6.7298
-6.58771
-6.44252
-6.29489
-6.14556
-5.99527
-5.8448
-5.69495
-5.5465
-5.40023
-5.25688
-5.11718
-4.98179
-4.85134
-4.72637
-4.60735
-4.49468
-4.38861