/*--------------------------------*- C++ -*----------------------------------*\
| =========                 |                                                 |
| \\      /  F ield         | OpenFOAM: The Open Source CFD Toolbox           |
|  \\    /   O peration     | Version:  2.2.x                                 |
|   \\  /    A nd           | Web:      www.OpenFOAM.org                      |
|    \\/     M anipulation  |                                                 |
\*---------------------------------------------------------------------------*/
FoamFile
{
    version     2.0;
    format      ascii;
    class       surfaceScalarField;
    location    "400";
    object      phi;
}
// * * * * * * * * * * * * * * * * * * * * * * * * * * * * * * * * * * * * * //

dimensions      [0 3 -1 0 0 0 0];

internalField   nonuniform List<scalar> 
24170
(
3.08816e-06
4.57307e-08
3.01421e-06
7.39502e-08
2.95207e-06
6.21399e-08
2.8898e-06
6.22721e-08
2.83025e-06
5.9552e-08
2.77483e-06
5.54135e-08
2.72359e-06
5.12403e-08
2.67625e-06
4.73402e-08
2.63251e-06
4.37405e-08
2.59208e-06
4.04308e-08
2.55469e-06
3.73919e-08
2.52009e-06
3.45997e-08
2.48806e-06
3.20308e-08
2.45839e-06
2.96708e-08
2.43084e-06
2.75429e-08
2.40491e-06
2.59334e-08
2.37841e-06
2.6501e-08
2.98013e-08
2.34861e-06
3.46859e-06
3.35878e-08
3.45794e-06
8.45982e-08
3.44343e-06
7.66478e-08
3.42863e-06
7.70691e-08
3.41247e-06
7.57138e-08
3.39536e-06
7.25193e-08
3.37764e-06
6.89667e-08
3.35953e-06
6.54438e-08
3.34128e-06
6.19947e-08
3.32307e-06
5.86361e-08
3.30508e-06
5.53839e-08
3.28743e-06
5.22462e-08
3.27024e-06
4.92271e-08
3.25357e-06
4.63393e-08
3.23747e-06
4.36364e-08
3.22208e-06
4.13242e-08
3.20892e-06
3.96605e-08
3.67192e-08
3.202e-06
3.80923e-06
3.65529e-08
3.81787e-06
7.59562e-08
3.82012e-06
7.43976e-08
3.82221e-06
7.49759e-08
3.82304e-06
7.48892e-08
3.82254e-06
7.30126e-08
3.82106e-06
7.04449e-08
3.81884e-06
6.76658e-08
3.81605e-06
6.47839e-08
3.81284e-06
6.18502e-08
3.80931e-06
5.89065e-08
3.80558e-06
5.59805e-08
3.80172e-06
5.30897e-08
3.79781e-06
5.02514e-08
3.79394e-06
4.74971e-08
3.79039e-06
4.48763e-08
3.78783e-06
4.22246e-08
3.79474e-08
3.7866e-06
4.20602e-06
3.50898e-08
4.21525e-06
6.67311e-08
4.2196e-06
7.00422e-08
4.22326e-06
7.13156e-08
4.22627e-06
7.18759e-08
4.22857e-06
7.0712e-08
4.23038e-06
6.86352e-08
4.23185e-06
6.61964e-08
4.23306e-06
6.35725e-08
4.23407e-06
6.08395e-08
4.23493e-06
5.80499e-08
4.23567e-06
5.52371e-08
4.23635e-06
5.24185e-08
4.237e-06
4.96021e-08
4.23771e-06
4.67845e-08
4.23867e-06
4.39147e-08
4.24017e-06
4.07196e-08
3.61895e-08
4.24193e-06
4.64072e-06
3.16713e-08
4.64868e-06
5.87801e-08
4.65365e-06
6.50703e-08
4.65784e-06
6.71226e-08
4.66169e-06
6.80296e-08
4.66508e-06
6.73145e-08
4.66812e-06
6.55963e-08
4.6709e-06
6.34188e-08
4.67348e-06
6.09975e-08
4.67589e-06
5.84248e-08
4.67818e-06
5.57594e-08
4.68038e-06
5.30371e-08
4.68252e-06
5.02745e-08
4.68466e-06
4.7471e-08
4.68684e-06
4.4602e-08
4.68917e-06
4.15853e-08
4.69169e-06
3.81967e-08
3.39594e-08
4.69392e-06
5.11835e-06
2.79131e-08
5.12557e-06
5.15649e-08
5.1311e-06
5.95353e-08
5.13585e-06
6.23729e-08
5.14027e-06
6.36158e-08
5.14428e-06
6.3301e-08
5.14795e-06
6.19315e-08
5.15135e-06
6.00138e-08
5.15456e-06
5.77892e-08
5.15761e-06
5.53688e-08
5.16055e-06
5.28194e-08
5.16341e-06
5.01813e-08
5.16621e-06
4.74722e-08
5.169e-06
4.46883e-08
5.1718e-06
4.17996e-08
5.17465e-06
3.87299e-08
5.17752e-06
3.53304e-08
3.14017e-08
5.18008e-06
5.64455e-06
2.43701e-08
5.65125e-06
4.48659e-08
5.65714e-06
5.36487e-08
5.66233e-06
5.71832e-08
5.66718e-06
5.87662e-08
5.67166e-06
5.88169e-08
5.67581e-06
5.77815e-08
5.6797e-06
5.61226e-08
5.6834e-06
5.40969e-08
5.68693e-06
5.18327e-08
5.69034e-06
4.94058e-08
5.69366e-06
4.68616e-08
5.69692e-06
4.42208e-08
5.70012e-06
4.14826e-08
5.7033e-06
3.86232e-08
5.70644e-06
3.55903e-08
5.70946e-06
3.23067e-08
2.87246e-08
5.71214e-06
4.40853e-06
2.19526e-08
4.41296e-06
4.04363e-08
4.41729e-06
4.93222e-08
4.42122e-06
5.32502e-08
4.42492e-06
5.50666e-08
4.42839e-06
5.53438e-08
4.43165e-06
5.45284e-08
4.43472e-06
5.30531e-08
4.43764e-06
5.11743e-08
4.44044e-06
4.9029e-08
4.44315e-06
4.6699e-08
4.44578e-06
4.42337e-08
4.44834e-06
4.16574e-08
4.45085e-06
3.89737e-08
4.45331e-06
3.61675e-08
4.45569e-06
3.3206e-08
4.45795e-06
3.00498e-08
2.67139e-08
4.45996e-06
5.14232e-06
1.94884e-08
5.14683e-06
3.59263e-08
5.15148e-06
4.46755e-08
5.15586e-06
4.88706e-08
5.16005e-06
5.08789e-08
5.16403e-06
5.13642e-08
5.16779e-06
5.07644e-08
5.17137e-06
4.94788e-08
5.17478e-06
4.77592e-08
5.17806e-06
4.57478e-08
5.18123e-06
4.35318e-08
5.1843e-06
4.11645e-08
5.18728e-06
3.8675e-08
5.19018e-06
3.60734e-08
5.193e-06
3.33556e-08
5.19569e-06
3.05088e-08
5.19822e-06
2.7524e-08
2.44524e-08
5.20048e-06
5.99827e-06
1.70098e-08
6.0028e-06
3.13996e-08
6.00771e-06
3.97686e-08
6.0125e-06
4.4077e-08
6.01717e-06
4.62106e-08
6.02167e-06
4.68665e-08
6.02597e-06
4.64645e-08
6.03009e-06
4.53655e-08
6.03403e-06
4.38114e-08
6.03783e-06
4.19469e-08
6.0415e-06
3.98622e-08
6.04505e-06
3.76148e-08
6.04849e-06
3.52388e-08
6.05181e-06
3.27521e-08
6.055e-06
3.01625e-08
6.05804e-06
2.74746e-08
6.06086e-06
2.47013e-08
2.19079e-08
6.0634e-06
6.99673e-06
1.45477e-08
7.00121e-06
2.6916e-08
7.00633e-06
3.46583e-08
7.0115e-06
3.89072e-08
7.01663e-06
4.10822e-08
7.02164e-06
4.18548e-08
7.02649e-06
4.16183e-08
7.03116e-06
4.06931e-08
7.03567e-06
3.9305e-08
7.04002e-06
3.75967e-08
7.04422e-06
3.56602e-08
7.04828e-06
3.35558e-08
7.0522e-06
3.1323e-08
7.05596e-06
2.89874e-08
7.05955e-06
2.65672e-08
7.06295e-06
2.40803e-08
7.0661e-06
2.15526e-08
1.90501e-08
7.06895e-06
8.16143e-06
1.21293e-08
8.16584e-06
2.25127e-08
8.1711e-06
2.94028e-08
8.17661e-06
3.34042e-08
8.18217e-06
3.55187e-08
8.18769e-06
3.63396e-08
8.19308e-06
3.62247e-08
8.19832e-06
3.54518e-08
8.2034e-06
3.42247e-08
8.20832e-06
3.26799e-08
8.21307e-06
3.0908e-08
8.21766e-06
2.89713e-08
8.22207e-06
2.69132e-08
8.22629e-06
2.47656e-08
8.2303e-06
2.25546e-08
8.23407e-06
2.0306e-08
8.23758e-06
1.8051e-08
1.58493e-08
8.24078e-06
9.52009e-06
9.77192e-09
9.5244e-06
1.82042e-08
9.52975e-06
2.40517e-08
9.53555e-06
2.76112e-08
9.54153e-06
2.95447e-08
9.54754e-06
3.03326e-08
9.55348e-06
3.02845e-08
9.55929e-06
2.96345e-08
9.56496e-06
2.85593e-08
9.57046e-06
2.71834e-08
9.57577e-06
2.5593e-08
9.58089e-06
2.38497e-08
9.58581e-06
2.19987e-08
9.59049e-06
2.00755e-08
9.59494e-06
1.81103e-08
9.59911e-06
1.61318e-08
9.60299e-06
1.4171e-08
1.22784e-08
9.60656e-06
1.1105e-05
7.47855e-09
1.11092e-05
1.39821e-08
1.11147e-05
1.86331e-08
1.11207e-05
2.15626e-08
1.11271e-05
2.31807e-08
1.11336e-05
2.38421e-08
1.114e-05
2.37964e-08
1.11465e-05
2.32323e-08
1.11527e-05
2.22949e-08
1.11588e-05
2.10911e-08
1.11647e-05
1.96985e-08
1.11704e-05
1.81741e-08
1.11758e-05
1.6562e-08
1.1181e-05
1.48974e-08
1.11859e-05
1.32106e-08
1.11905e-05
1.15291e-08
1.11948e-05
9.8803e-09
8.30513e-09
1.11988e-05
1.29539e-05
5.23389e-09
1.29581e-05
9.81168e-09
1.29635e-05
1.31405e-08
1.29698e-05
1.52682e-08
1.29766e-05
1.64307e-08
1.29836e-05
1.68637e-08
1.29906e-05
1.67493e-08
1.29976e-05
1.62277e-08
1.30045e-05
1.5409e-08
1.30112e-05
1.43775e-08
1.30177e-05
1.31966e-08
1.3024e-05
1.19149e-08
1.303e-05
1.05706e-08
1.30357e-05
9.19513e-09
1.30411e-05
7.81494e-09
1.30461e-05
6.45353e-09
1.30509e-05
5.13282e-09
3.88458e-09
1.30553e-05
1.51107e-05
2.99878e-09
1.51149e-05
5.62169e-09
1.51205e-05
7.51454e-09
1.51271e-05
8.68654e-09
1.51343e-05
9.25673e-09
1.51418e-05
9.35844e-09
1.51494e-05
9.10281e-09
1.51571e-05
8.57876e-09
1.51646e-05
7.85777e-09
1.5172e-05
6.9965e-09
1.51792e-05
6.03936e-09
1.51861e-05
5.02139e-09
1.51927e-05
3.97095e-09
1.51989e-05
2.91157e-09
1.52049e-05
1.86314e-09
1.52105e-05
8.42795e-10
1.52158e-05
-1.33898e-10
-1.04332e-09
1.52207e-05
1.76267e-05
7.02452e-10
1.76311e-05
1.28185e-09
1.7637e-05
1.61041e-09
1.7644e-05
1.68193e-09
1.76517e-05
1.5335e-09
1.76599e-05
1.20923e-09
1.76682e-05
7.47897e-10
1.76766e-05
1.83241e-10
1.76849e-05
-4.55885e-10
1.76931e-05
-1.14516e-09
1.7701e-05
-1.86437e-09
1.77086e-05
-2.59654e-09
1.77159e-05
-3.32713e-09
1.77229e-05
-4.04367e-09
1.77295e-05
-4.73533e-09
1.77357e-05
-5.39276e-09
1.77416e-05
-6.00727e-09
-6.56259e-09
1.77471e-05
1.78284e-05
-1.46974e-09
1.78325e-05
-2.84229e-09
1.78381e-05
-4.03503e-09
1.78449e-05
-5.05289e-09
1.78523e-05
-5.92152e-09
1.78602e-05
-6.6779e-09
1.78683e-05
-7.35244e-09
1.78765e-05
-7.96506e-09
1.78845e-05
-8.52864e-09
1.78925e-05
-9.05167e-09
1.79001e-05
-9.53902e-09
1.79075e-05
-9.99279e-09
1.79146e-05
-1.04132e-08
1.79214e-05
-1.07993e-08
1.79278e-05
-1.11495e-08
1.79339e-05
-1.14618e-08
1.79396e-05
-1.17337e-08
-1.19554e-08
1.7945e-05
1.58833e-05
-3.41017e-09
1.5887e-05
-6.53492e-09
1.5892e-05
-9.09236e-09
1.5898e-05
-1.10661e-08
1.59047e-05
-1.25473e-08
1.59117e-05
-1.36594e-08
1.59188e-05
-1.44985e-08
1.5926e-05
-1.5132e-08
1.5933e-05
-1.56105e-08
1.594e-05
-1.5972e-08
1.59467e-05
-1.62439e-08
1.59531e-05
-1.6445e-08
1.59593e-05
-1.65884e-08
1.59652e-05
-1.66832e-08
1.59708e-05
-1.67357e-08
1.59761e-05
-1.675e-08
1.59811e-05
-1.67285e-08
-1.6666e-08
1.59858e-05
1.41505e-05
-5.2258e-09
1.4154e-05
-1.00203e-08
1.41587e-05
-1.38573e-08
1.41643e-05
-1.66671e-08
1.41704e-05
-1.86444e-08
1.41768e-05
-2.00242e-08
1.41833e-05
-2.09658e-08
1.41897e-05
-2.15784e-08
1.4196e-05
-2.19477e-08
1.42022e-05
-2.21388e-08
1.42082e-05
-2.21982e-08
1.42139e-05
-2.21587e-08
1.42193e-05
-2.20443e-08
1.42245e-05
-2.18722e-08
1.42295e-05
-2.16548e-08
1.42341e-05
-2.14015e-08
1.42385e-05
-2.11182e-08
-2.08038e-08
1.42426e-05
1.26068e-05
-6.95606e-09
1.26102e-05
-1.34428e-08
1.26148e-05
-1.8525e-08
1.26202e-05
-2.20405e-08
1.2626e-05
-2.43871e-08
1.26319e-05
-2.59437e-08
1.26378e-05
-2.69207e-08
1.26437e-05
-2.74645e-08
1.26495e-05
-2.76953e-08
1.2655e-05
-2.77021e-08
1.26604e-05
-2.75469e-08
1.26655e-05
-2.72735e-08
1.26704e-05
-2.69141e-08
1.2675e-05
-2.64925e-08
1.26794e-05
-2.60267e-08
1.26835e-05
-2.55303e-08
1.26874e-05
-2.50132e-08
-2.44781e-08
1.26911e-05
1.12314e-05
-8.57096e-09
1.12349e-05
-1.69148e-08
1.12396e-05
-2.32329e-08
1.12448e-05
-2.72793e-08
1.12503e-05
-2.98587e-08
1.12559e-05
-3.15043e-08
1.12614e-05
-3.24481e-08
1.12668e-05
-3.28726e-08
1.1272e-05
-3.2934e-08
1.12771e-05
-3.27412e-08
1.12819e-05
-3.2367e-08
1.12865e-05
-3.18632e-08
1.12909e-05
-3.12678e-08
1.1295e-05
-3.0609e-08
1.12989e-05
-2.99083e-08
1.13025e-05
-2.91824e-08
1.13059e-05
-2.84436e-08
-2.76979e-08
1.13092e-05
1.0006e-05
-9.95841e-09
1.00096e-05
-2.05583e-08
1.00145e-05
-2.80853e-08
1.00196e-05
-3.24143e-08
1.00249e-05
-3.50893e-08
1.00301e-05
-3.67422e-08
1.00352e-05
-3.75841e-08
1.00402e-05
-3.78419e-08
1.0045e-05
-3.77071e-08
1.00496e-05
-3.73018e-08
1.00539e-05
-3.67053e-08
1.0058e-05
-3.59745e-08
1.00619e-05
-3.51512e-08
1.00655e-05
-3.42665e-08
1.0069e-05
-3.33447e-08
1.00722e-05
-3.2406e-08
1.00752e-05
-3.14687e-08
-3.05477e-08
1.00781e-05
8.91405e-06
-1.09126e-08
8.918e-06
-2.45046e-08
8.92301e-06
-3.30952e-08
8.92799e-06
-3.73947e-08
8.93296e-06
-4.00555e-08
8.93785e-06
-4.1633e-08
8.94257e-06
-4.22999e-08
8.94708e-06
-4.23492e-08
8.95137e-06
-4.2001e-08
8.95545e-06
-4.138e-08
8.95931e-06
-4.05665e-08
8.96296e-06
-3.96194e-08
8.96639e-06
-3.85817e-08
8.96961e-06
-3.74848e-08
8.97262e-06
-3.63528e-08
8.97542e-06
-3.52056e-08
8.97801e-06
-3.40616e-08
-3.2936e-08
8.9804e-06
7.94095e-06
-1.11987e-08
7.94545e-06
-2.89949e-08
7.95047e-06
-3.8117e-08
7.95516e-06
-4.20816e-08
7.95981e-06
-4.47126e-08
7.96434e-06
-4.61532e-08
7.96862e-06
-4.65796e-08
7.97265e-06
-4.63842e-08
7.97646e-06
-4.5806e-08
7.98004e-06
-4.49646e-08
7.98342e-06
-4.39381e-08
7.98658e-06
-4.27848e-08
7.98955e-06
-4.15468e-08
7.99232e-06
-4.02538e-08
7.99489e-06
-3.89287e-08
7.99728e-06
-3.75919e-08
7.99949e-06
-3.62705e-08
-3.50085e-08
8.00156e-06
7.0729e-06
-9.77033e-09
7.07856e-06
-3.46516e-08
7.08334e-06
-4.28927e-08
7.08751e-06
-4.62507e-08
7.09171e-06
-4.89151e-08
7.09575e-06
-5.01923e-08
7.09954e-06
-5.03662e-08
7.10309e-06
-4.99333e-08
7.10641e-06
-4.91319e-08
7.10952e-06
-4.80739e-08
7.11242e-06
-4.68378e-08
7.11512e-06
-4.54826e-08
7.11762e-06
-4.40498e-08
7.11994e-06
-4.25669e-08
7.12206e-06
-4.10513e-08
7.12398e-06
-3.95132e-08
7.12567e-06
-3.7962e-08
-3.64037e-08
7.12707e-06
6.29708e-06
-4.33639e-09
6.30525e-06
-4.28169e-08
6.31006e-06
-4.77036e-08
6.31404e-06
-5.02366e-08
6.31783e-06
-5.26957e-08
6.32115e-06
-5.3517e-08
6.32409e-06
-5.33016e-08
6.32674e-06
-5.25853e-08
6.32916e-06
-5.15488e-08
6.33136e-06
-5.02773e-08
6.33336e-06
-4.88424e-08
6.33518e-06
-4.73001e-08
6.33682e-06
-4.56898e-08
6.33829e-06
-4.40368e-08
6.33959e-06
-4.2354e-08
6.34072e-06
-4.06428e-08
6.34167e-06
-3.89069e-08
-3.71545e-08
6.34242e-06
5.60106e-06
9.50858e-09
5.61056e-06
-5.23246e-08
5.61455e-06
-5.16833e-08
5.61884e-06
-5.45265e-08
5.62265e-06
-5.65099e-08
5.62545e-06
-5.63169e-08
5.6274e-06
-5.5249e-08
5.62868e-06
-5.38697e-08
5.62943e-06
-5.22952e-08
5.62973e-06
-5.05785e-08
5.62966e-06
-4.87714e-08
5.62927e-06
-4.69154e-08
5.62862e-06
-4.50393e-08
5.62775e-06
-4.31603e-08
5.62667e-06
-4.12823e-08
5.62542e-06
-3.93863e-08
5.62393e-06
-3.74148e-08
-3.5108e-08
5.62188e-06
5.00884e-06
2.97822e-09
5.00509e-06
-4.85759e-08
4.99659e-06
-4.31856e-08
4.98989e-06
-4.78169e-08
4.98301e-06
-4.96363e-08
4.97558e-06
-4.88865e-08
4.96755e-06
-4.72217e-08
4.95893e-06
-4.52418e-08
4.94975e-06
-4.31208e-08
4.94012e-06
-4.09483e-08
4.93013e-06
-3.87858e-08
4.91989e-06
-3.66727e-08
4.90948e-06
-3.46313e-08
4.89899e-06
-3.2672e-08
4.88851e-06
-3.0794e-08
4.8781e-06
-2.89765e-08
4.86784e-06
-2.71525e-08
-2.48881e-08
4.85762e-06
4.45953e-06
4.41095e-06
4.36777e-06
4.31995e-06
4.27032e-06
4.22143e-06
4.17421e-06
4.12896e-06
4.08584e-06
4.04489e-06
4.00611e-06
3.96944e-06
3.9348e-06
3.90213e-06
3.87134e-06
3.84236e-06
3.81521e-06
3.79032e-06
2.94562e-08
-2.94562e-08
5.12325e-08
-2.17771e-08
6.01269e-08
-8.89471e-09
5.59242e-08
4.2004e-09
3.9976e-08
1.59423e-08
1.45266e-08
2.54398e-08
-1.80504e-08
3.25653e-08
-5.54005e-08
3.73356e-08
-9.57195e-08
4.03067e-08
-1.37933e-07
4.22026e-08
-1.81398e-07
4.34576e-08
-2.25696e-07
4.42915e-08
-2.70521e-07
4.48201e-08
-3.15633e-07
4.51082e-08
-3.60832e-07
4.51971e-08
-4.05952e-07
4.51179e-08
-4.50851e-07
4.48969e-08
-4.95413e-07
4.45605e-08
-5.39556e-07
4.41397e-08
-5.83226e-07
4.36671e-08
-6.26388e-07
4.3159e-08
-6.69015e-07
4.26231e-08
-7.11086e-07
4.20668e-08
-7.52587e-07
4.14972e-08
-7.93511e-07
4.09212e-08
-8.33859e-07
4.0345e-08
-8.73634e-07
3.9774e-08
-9.12848e-07
3.92128e-08
-9.51514e-07
3.86653e-08
-9.89648e-07
3.81347e-08
-1.02727e-06
3.76236e-08
-1.0644e-06
3.71337e-08
-1.10107e-06
3.66664e-08
-1.13729e-06
3.62225e-08
-1.17309e-06
3.58023e-08
-1.2085e-06
3.54058e-08
-1.24353e-06
3.50323e-08
-1.27821e-06
3.46812e-08
-1.31256e-06
3.43513e-08
-1.3466e-06
3.4041e-08
-1.38035e-06
3.37486e-08
-1.41382e-06
3.34721e-08
-1.44703e-06
3.32093e-08
-1.47998e-06
3.29578e-08
-1.5127e-06
3.27152e-08
-1.54518e-06
3.24785e-08
-1.57742e-06
3.22452e-08
-1.60943e-06
3.20123e-08
-1.64121e-06
3.17768e-08
-1.67275e-06
3.15358e-08
-1.70404e-06
3.12863e-08
-1.73506e-06
3.10251e-08
-1.76582e-06
3.07493e-08
-1.79627e-06
3.04559e-08
-1.82642e-06
3.0142e-08
-1.85622e-06
2.9805e-08
-1.88567e-06
2.94419e-08
-1.91472e-06
2.90502e-08
-1.94334e-06
2.86274e-08
-1.97151e-06
2.8171e-08
-1.99919e-06
2.76787e-08
-2.02634e-06
2.71485e-08
-2.05292e-06
2.65788e-08
-2.07889e-06
2.59681e-08
-2.10421e-06
2.53154e-08
-2.12883e-06
2.462e-08
-2.15271e-06
2.38818e-08
-2.17581e-06
2.31012e-08
-2.19809e-06
2.22787e-08
-2.21951e-06
2.14151e-08
-2.24002e-06
2.0512e-08
-2.25959e-06
1.95712e-08
-2.27819e-06
1.85953e-08
-2.29577e-06
1.75874e-08
-2.31232e-06
1.65517e-08
-2.32782e-06
1.54931e-08
-2.34223e-06
1.44172e-08
-2.35556e-06
1.33303e-08
-2.3678e-06
1.22392e-08
-2.37896e-06
1.11513e-08
-2.38903e-06
1.00746e-08
-2.39805e-06
9.01767e-09
-2.40604e-06
7.98925e-09
-2.41304e-06
6.99808e-09
-2.41909e-06
6.05331e-09
-2.42426e-06
5.16436e-09
-2.4286e-06
4.34121e-09
-2.43219e-06
3.59423e-09
-2.43513e-06
2.93351e-09
-2.4375e-06
2.3687e-09
-2.43941e-06
1.90856e-09
-2.44097e-06
1.56103e-09
-2.44231e-06
1.33299e-09
-2.44354e-06
1.22967e-09
-2.44479e-06
1.25439e-09
-2.44619e-06
1.40848e-09
-2.44788e-06
1.69114e-09
-2.44998e-06
2.09977e-09
-2.4526e-06
2.63002e-09
-2.45588e-06
3.27565e-09
-2.45991e-06
4.02834e-09
-2.46479e-06
4.87798e-09
-2.47061e-06
5.81259e-09
-2.47744e-06
6.81832e-09
-2.48533e-06
7.87908e-09
-2.49431e-06
8.97652e-09
-2.5044e-06
1.00899e-08
-2.51559e-06
1.11969e-08
-2.52786e-06
1.22746e-08
-2.54115e-06
1.33003e-08
-2.55539e-06
1.42516e-08
-2.57049e-06
1.51062e-08
-2.58633e-06
1.58419e-08
-2.60277e-06
1.64373e-08
-2.61965e-06
1.68723e-08
-2.63678e-06
1.71273e-08
-2.65396e-06
1.71818e-08
-2.67098e-06
1.70156e-08
-2.68759e-06
1.66109e-08
-2.70354e-06
1.59536e-08
-2.71857e-06
1.5031e-08
-2.7324e-06
1.38302e-08
-2.74474e-06
1.23381e-08
-2.75529e-06
1.05423e-08
-2.76373e-06
8.43329e-09
-2.76973e-06
6.00668e-09
-2.77299e-06
3.2512e-09
-2.77315e-06
1.64659e-10
-2.76994e-06
-3.2068e-09
-2.76309e-06
-6.84652e-09
-2.7523e-06
-1.07803e-08
-2.73729e-06
-1.5011e-08
-2.71776e-06
-1.95315e-08
-2.69344e-06
-2.43257e-08
-2.66407e-06
-2.93784e-08
-2.62939e-06
-3.46858e-08
-2.58915e-06
-4.02401e-08
-2.54313e-06
-4.60158e-08
-2.49114e-06
-5.19919e-08
-2.43298e-06
-5.81571e-08
-2.36851e-06
-6.44746e-08
-2.2976e-06
-7.09047e-08
-2.22015e-06
-7.74404e-08
-2.13608e-06
-8.40631e-08
-2.04534e-06
-9.07247e-08
-1.94795e-06
-9.73819e-08
-1.84395e-06
-1.04004e-07
-1.73337e-06
-1.10565e-07
-1.61639e-06
-1.16994e-07
-1.49315e-06
-1.2325e-07
-1.36388e-06
-1.29276e-07
-1.22887e-06
-1.3503e-07
-1.08842e-06
-1.40459e-07
-9.42916e-07
-1.45514e-07
-7.92622e-07
-1.50315e-07
-6.37888e-07
-1.5474e-07
-4.79495e-07
-1.58406e-07
-3.17141e-07
-1.62364e-07
-1.49849e-07
-1.67297e-07
1.93497e-08
-1.69213e-07
1.87019e-07
-1.67665e-07
3.52325e-07
-1.6532e-07
5.14833e-07
-1.62516e-07
6.74006e-07
-1.59165e-07
8.29183e-07
-1.5519e-07
9.7979e-07
-1.50606e-07
1.12519e-06
-1.4541e-07
1.26479e-06
-1.39611e-07
1.39803e-06
-1.33248e-07
1.5244e-06
-1.26364e-07
1.64336e-06
-1.18968e-07
1.75448e-06
-1.11106e-07
1.85724e-06
-1.02754e-07
1.95108e-06
-9.38322e-08
2.03522e-06
-8.41284e-08
2.10831e-06
-7.30911e-08
2.16785e-06
-5.95596e-08
2.208e-06
-4.01805e-08
2.21583e-06
-7.85285e-09
7.61012e-08
2.13973e-06
6.51939e-09
-3.60102e-08
-3.35843e-10
-1.49558e-08
-1.52811e-08
6.0344e-09
-3.51796e-08
2.40898e-08
-5.86248e-08
3.93825e-08
-8.51813e-08
5.19955e-08
-1.14575e-07
6.19626e-08
-1.46676e-07
6.94424e-08
-1.8123e-07
7.48689e-08
-2.17778e-07
7.87603e-08
-2.55832e-07
8.15216e-08
-2.94975e-07
8.34444e-08
-3.34872e-07
8.47276e-08
-3.75264e-07
8.55077e-08
-4.15942e-07
8.58825e-08
-4.56746e-07
8.59261e-08
-4.97545e-07
8.56986e-08
-5.38236e-07
8.52514e-08
-5.78728e-07
8.46312e-08
-6.18942e-07
8.38782e-08
-6.5881e-07
8.30234e-08
-6.98282e-07
8.20909e-08
-7.3732e-07
8.11013e-08
-7.75899e-07
8.00722e-08
-8.13999e-07
7.90192e-08
-8.51611e-07
7.79557e-08
-8.88731e-07
7.68933e-08
-9.2536e-07
7.5842e-08
-9.61504e-07
7.48101e-08
-9.97173e-07
7.38044e-08
-1.03238e-06
7.28305e-08
-1.06714e-06
7.18925e-08
-1.10146e-06
7.09937e-08
-1.13538e-06
7.01362e-08
-1.16889e-06
6.93211e-08
-1.20204e-06
6.85488e-08
-1.23482e-06
6.78186e-08
-1.26727e-06
6.71293e-08
-1.29939e-06
6.6479e-08
-1.33122e-06
6.58653e-08
-1.36275e-06
6.5285e-08
-1.39401e-06
6.47346e-08
-1.42501e-06
6.42098e-08
-1.45576e-06
6.37064e-08
-1.48626e-06
6.32196e-08
-1.51653e-06
6.27442e-08
-1.54656e-06
6.2275e-08
-1.57635e-06
6.18066e-08
-1.60591e-06
6.13334e-08
-1.63523e-06
6.08495e-08
-1.66429e-06
6.03494e-08
-1.6931e-06
5.98272e-08
-1.72163e-06
5.92772e-08
-1.74987e-06
5.86935e-08
-1.7778e-06
5.80705e-08
-1.8054e-06
5.74025e-08
-1.83264e-06
5.66842e-08
-1.8595e-06
5.59103e-08
-1.88595e-06
5.5076e-08
-1.91195e-06
5.41767e-08
-1.93748e-06
5.32083e-08
-1.9625e-06
5.21671e-08
-1.98698e-06
5.10499e-08
-2.01086e-06
4.98543e-08
-2.03413e-06
4.85783e-08
-2.05673e-06
4.72207e-08
-2.07863e-06
4.5781e-08
-2.09979e-06
4.42595e-08
-2.12017e-06
4.26574e-08
-2.13973e-06
4.09769e-08
-2.15844e-06
3.92211e-08
-2.17627e-06
3.73944e-08
-2.19318e-06
3.55023e-08
-2.20914e-06
3.35516e-08
-2.22414e-06
3.15502e-08
-2.23815e-06
2.95075e-08
-2.25117e-06
2.7434e-08
-2.26318e-06
2.53412e-08
-2.27418e-06
2.32423e-08
-2.28417e-06
2.11512e-08
-2.29318e-06
1.90835e-08
-2.30122e-06
1.70556e-08
-2.30832e-06
1.50846e-08
-2.31452e-06
1.31886e-08
-2.31987e-06
1.13862e-08
-2.32441e-06
9.69637e-09
-2.32821e-06
8.13806e-09
-2.33135e-06
6.72969e-09
-2.33391e-06
5.48892e-09
-2.33596e-06
4.43224e-09
-2.33762e-06
3.57521e-09
-2.33898e-06
2.93196e-09
-2.34016e-06
2.51485e-09
-2.34127e-06
2.33406e-09
-2.34241e-06
2.39676e-09
-2.34372e-06
2.70673e-09
-2.34531e-06
3.26337e-09
-2.34728e-06
4.06186e-09
-2.34975e-06
5.09295e-09
-2.35282e-06
6.3429e-09
-2.35659e-06
7.7936e-09
-2.36113e-06
9.42304e-09
-2.36651e-06
1.12055e-08
-2.37279e-06
1.31117e-08
-2.38001e-06
1.51094e-08
-2.3882e-06
1.7163e-08
-2.39734e-06
1.92347e-08
-2.40744e-06
2.12843e-08
-2.41844e-06
2.32697e-08
-2.4303e-06
2.51475e-08
-2.44292e-06
2.68728e-08
-2.45622e-06
2.84004e-08
-2.47006e-06
2.96853e-08
-2.4843e-06
3.06843e-08
-2.49877e-06
3.13558e-08
-2.51329e-06
3.16595e-08
-2.52766e-06
3.15567e-08
-2.54166e-06
3.10118e-08
-2.55504e-06
2.99925e-08
-2.56756e-06
2.84703e-08
-2.57895e-06
2.64197e-08
-2.58894e-06
2.38175e-08
-2.59724e-06
2.06409e-08
-2.60356e-06
1.68653e-08
-2.6076e-06
1.24688e-08
-2.60903e-06
7.43599e-09
-2.60753e-06
1.75358e-09
-2.60285e-06
-4.52332e-09
-2.59473e-06
-1.13452e-08
-2.58285e-06
-1.87368e-08
-2.56693e-06
-2.67075e-08
-2.54669e-06
-3.52544e-08
-2.52183e-06
-4.43708e-08
-2.4921e-06
-5.40415e-08
-2.45723e-06
-6.42407e-08
-2.41698e-06
-7.49404e-08
-2.37109e-06
-8.61162e-08
-2.31936e-06
-9.7737e-08
-2.26159e-06
-1.09763e-07
-2.19757e-06
-1.22155e-07
-2.12718e-06
-1.34865e-07
-2.05027e-06
-1.47833e-07
-1.96673e-06
-1.61007e-07
-1.87647e-06
-1.74342e-07
-1.77944e-06
-1.87767e-07
-1.67564e-06
-2.012e-07
-1.56509e-06
-2.14584e-07
-1.4478e-06
-2.27845e-07
-1.32392e-06
-2.40876e-07
-1.19357e-06
-2.53604e-07
-1.05694e-06
-2.65895e-07
-9.14266e-07
-2.77693e-07
-7.6583e-07
-2.88894e-07
-6.11951e-07
-2.99378e-07
-4.52914e-07
-3.09345e-07
-2.89038e-07
-3.1861e-07
-1.19985e-07
-3.27459e-07
5.21827e-08
-3.34525e-07
2.24015e-07
-3.3911e-07
3.94869e-07
-3.40074e-07
5.64172e-07
-3.36952e-07
7.30947e-07
-3.32074e-07
8.94391e-07
-3.25963e-07
1.05384e-06
-3.18597e-07
1.20862e-06
-3.09968e-07
1.35813e-06
-3.001e-07
1.5018e-06
-2.89051e-07
1.63909e-06
-2.76895e-07
1.76955e-06
-2.63702e-07
1.89276e-06
-2.49562e-07
2.00832e-06
-2.3455e-07
2.11591e-06
-2.18701e-07
2.21515e-06
-2.02008e-07
2.30561e-06
-1.84311e-07
2.38669e-06
-1.65208e-07
2.45738e-06
-1.43771e-07
2.51588e-06
-1.18029e-07
2.55892e-06
-8.32015e-08
2.57986e-06
-2.87728e-08
7.54398e-08
2.58052e-06
-1.57959e-08
-2.0215e-08
-3.87781e-08
8.01353e-09
-6.33551e-08
3.06064e-08
-8.8555e-08
4.9286e-08
-1.14421e-07
6.52442e-08
-1.41196e-07
7.87671e-08
-1.69181e-07
8.99437e-08
-1.98643e-07
9.89005e-08
-2.2966e-07
1.05883e-07
-2.62108e-07
1.11206e-07
-2.95763e-07
1.15176e-07
-3.30376e-07
1.18057e-07
-3.65711e-07
1.20062e-07
-4.01564e-07
1.21361e-07
-4.37764e-07
1.22082e-07
-4.74168e-07
1.2233e-07
-5.10661e-07
1.22191e-07
-5.47144e-07
1.21733e-07
-5.83533e-07
1.21019e-07
-6.19755e-07
1.20099e-07
-6.55749e-07
1.19015e-07
-6.91464e-07
1.17804e-07
-7.26861e-07
1.16497e-07
-7.61911e-07
1.15121e-07
-7.96591e-07
1.13699e-07
-8.30887e-07
1.1225e-07
-8.64787e-07
1.10794e-07
-8.98288e-07
1.09343e-07
-9.31389e-07
1.07912e-07
-9.64094e-07
1.0651e-07
-9.96409e-07
1.05146e-07
-1.02834e-06
1.03826e-07
-1.05991e-06
1.02557e-07
-1.09111e-06
1.01341e-07
-1.12197e-06
1.0018e-07
-1.1525e-06
9.90767e-08
-1.18271e-06
9.80297e-08
-1.21262e-06
9.7038e-08
-1.24223e-06
9.60992e-08
-1.27158e-06
9.52101e-08
-1.30066e-06
9.43667e-08
-1.32949e-06
9.35643e-08
-1.35808e-06
9.27974e-08
-1.38643e-06
9.20598e-08
-1.41455e-06
9.13449e-08
-1.44246e-06
9.06458e-08
-1.47014e-06
8.9955e-08
-1.49759e-06
8.92648e-08
-1.52483e-06
8.85672e-08
-1.55184e-06
8.78541e-08
-1.5786e-06
8.71172e-08
-1.60513e-06
8.63482e-08
-1.63139e-06
8.55387e-08
-1.65738e-06
8.46803e-08
-1.68307e-06
8.3765e-08
-1.70845e-06
8.27845e-08
-1.7335e-06
8.17311e-08
-1.75819e-06
8.0597e-08
-1.78249e-06
7.93753e-08
-1.80637e-06
7.80593e-08
-1.8298e-06
7.66429e-08
-1.85276e-06
7.51208e-08
-1.8752e-06
7.34886e-08
-1.89709e-06
7.17424e-08
-1.91839e-06
6.98796e-08
-1.93907e-06
6.78983e-08
-1.95909e-06
6.57979e-08
-1.97841e-06
6.35789e-08
-1.99699e-06
6.12431e-08
-2.01481e-06
5.87936e-08
-2.03182e-06
5.62352e-08
-2.048e-06
5.35743e-08
-2.06332e-06
5.0819e-08
-2.07775e-06
4.79794e-08
-2.09126e-06
4.50672e-08
-2.10385e-06
4.20962e-08
-2.1155e-06
3.90817e-08
-2.1262e-06
3.60411e-08
-2.13595e-06
3.29934e-08
-2.14476e-06
2.99593e-08
-2.15264e-06
2.69611e-08
-2.15961e-06
2.40223e-08
-2.16569e-06
2.1168e-08
-2.17092e-06
1.84241e-08
-2.17536e-06
1.58175e-08
-2.17904e-06
1.33755e-08
-2.18202e-06
1.11253e-08
-2.18439e-06
9.0935e-09
-2.18621e-06
7.30561e-09
-2.18756e-06
5.78562e-09
-2.18854e-06
4.55579e-09
-2.18924e-06
3.63612e-09
-2.18977e-06
3.04378e-09
-2.19023e-06
2.79228e-09
-2.19072e-06
2.89124e-09
-2.19135e-06
3.34515e-09
-2.19224e-06
4.15233e-09
-2.19349e-06
5.30523e-09
-2.19518e-06
6.7902e-09
-2.19743e-06
8.58723e-09
-2.20031e-06
1.06702e-08
-2.2039e-06
1.30068e-08
-2.20826e-06
1.55591e-08
-2.21343e-06
1.82839e-08
-2.21946e-06
2.11331e-08
-2.22634e-06
2.40541e-08
-2.2341e-06
2.6991e-08
-2.2427e-06
2.98845e-08
-2.2521e-06
3.26731e-08
-2.26224e-06
3.52929e-08
-2.27304e-06
3.76789e-08
-2.28441e-06
3.97654e-08
-2.29621e-06
4.14876e-08
-2.30831e-06
4.27825e-08
-2.32054e-06
4.35886e-08
-2.33273e-06
4.38464e-08
-2.34467e-06
4.34997e-08
-2.35616e-06
4.24963e-08
-2.36696e-06
4.07888e-08
-2.37682e-06
3.83345e-08
-2.3855e-06
3.5096e-08
-2.39272e-06
3.104e-08
-2.39822e-06
2.61339e-08
-2.40169e-06
2.03434e-08
-2.40286e-06
1.36381e-08
-2.40142e-06
5.99125e-09
-2.3971e-06
-2.56417e-09
-2.38966e-06
-1.19635e-08
-2.3788e-06
-2.22007e-08
-2.36424e-06
-3.32943e-08
-2.3457e-06
-4.52491e-08
-2.3229e-06
-5.80563e-08
-2.29558e-06
-7.17008e-08
-2.26346e-06
-8.61614e-08
-2.22629e-06
-1.01408e-07
-2.18384e-06
-1.17401e-07
-2.13585e-06
-1.34103e-07
-2.08212e-06
-1.5147e-07
-2.02243e-06
-1.69448e-07
-1.95661e-06
-1.87973e-07
-1.8845e-06
-2.06975e-07
-1.80595e-06
-2.26376e-07
-1.72085e-06
-2.46101e-07
-1.6291e-06
-2.66088e-07
-1.53062e-06
-2.86235e-07
-1.4254e-06
-3.0642e-07
-1.31342e-06
-3.26561e-07
-1.19471e-06
-3.46559e-07
-1.06935e-06
-3.66242e-07
-9.37432e-07
-3.85527e-07
-7.99125e-07
-4.04204e-07
-6.5461e-07
-4.22211e-07
-5.04147e-07
-4.39365e-07
-3.47995e-07
-4.55532e-07
-1.86354e-07
-4.70992e-07
-1.98872e-08
-4.85079e-07
1.49175e-07
-4.96522e-07
3.18928e-07
-5.04281e-07
4.88327e-07
-5.08508e-07
6.56731e-07
-5.08483e-07
8.23785e-07
-5.04008e-07
9.88396e-07
-4.96685e-07
1.14952e-06
-4.87091e-07
1.3063e-06
-4.75382e-07
1.458e-06
-4.61668e-07
1.60396e-06
-4.46064e-07
1.74363e-06
-4.2872e-07
1.87652e-06
-4.09784e-07
2.00222e-06
-3.8941e-07
2.12041e-06
-3.67747e-07
2.23079e-06
-3.44928e-07
2.33312e-06
-3.21028e-07
2.42715e-06
-2.96034e-07
2.51258e-06
-2.69746e-07
2.589e-06
-2.41635e-07
2.65575e-06
-2.10527e-07
2.71177e-06
-1.74059e-07
2.75572e-06
-1.27151e-07
2.78662e-06
-5.96746e-08
4.8496e-08
2.81357e-06
-2.87575e-08
8.53121e-09
-5.89658e-08
3.82159e-08
-8.80712e-08
5.97091e-08
-1.16294e-07
7.7508e-08
-1.43956e-07
9.29058e-08
-1.71423e-07
1.06233e-07
-1.99063e-07
1.17584e-07
-2.27197e-07
1.27034e-07
-2.56026e-07
1.34713e-07
-2.85623e-07
1.40803e-07
-3.1596e-07
1.45513e-07
-3.4695e-07
1.49048e-07
-3.78481e-07
1.51594e-07
-4.10433e-07
1.53313e-07
-4.42692e-07
1.54342e-07
-4.75157e-07
1.54796e-07
-5.07738e-07
1.54771e-07
-5.40354e-07
1.54349e-07
-5.72937e-07
1.53601e-07
-6.05425e-07
1.52586e-07
-6.37767e-07
1.51355e-07
-6.69918e-07
1.49954e-07
-7.01843e-07
1.48421e-07
-7.33512e-07
1.4679e-07
-7.64903e-07
1.4509e-07
-7.95999e-07
1.43346e-07
-8.26787e-07
1.41582e-07
-8.57259e-07
1.39816e-07
-8.87411e-07
1.38064e-07
-9.17241e-07
1.3634e-07
-9.46751e-07
1.34656e-07
-9.75946e-07
1.33021e-07
-1.00483e-06
1.31441e-07
-1.03341e-06
1.29923e-07
-1.0617e-06
1.28469e-07
-1.08971e-06
1.27082e-07
-1.11744e-06
1.25761e-07
-1.14491e-06
1.24506e-07
-1.17212e-06
1.23314e-07
-1.19909e-06
1.22182e-07
-1.22583e-06
1.21105e-07
-1.25234e-06
1.20077e-07
-1.27864e-06
1.19092e-07
-1.30472e-06
1.18141e-07
-1.33059e-06
1.17218e-07
-1.35626e-06
1.16313e-07
-1.38172e-06
1.15418e-07
-1.40698e-06
1.14522e-07
-1.43203e-06
1.13615e-07
-1.45686e-06
1.12687e-07
-1.48147e-06
1.11728e-07
-1.50585e-06
1.10727e-07
-1.52999e-06
1.09673e-07
-1.55386e-06
1.08556e-07
-1.57746e-06
1.07364e-07
-1.60077e-06
1.06088e-07
-1.62375e-06
1.04717e-07
-1.6464e-06
1.03242e-07
-1.66868e-06
1.01653e-07
-1.69056e-06
9.99411e-08
-1.71202e-06
9.80994e-08
-1.73302e-06
9.61206e-08
-1.75353e-06
9.39984e-08
-1.77351e-06
9.17281e-08
-1.79294e-06
8.93059e-08
-1.81177e-06
8.67293e-08
-1.82997e-06
8.39975e-08
-1.8475e-06
8.11111e-08
-1.86433e-06
7.80723e-08
-1.88042e-06
7.48854e-08
-1.89574e-06
7.15567e-08
-1.91027e-06
6.80945e-08
-1.92396e-06
6.45095e-08
-1.93679e-06
6.08147e-08
-1.94875e-06
5.70255e-08
-1.95981e-06
5.31597e-08
-1.96997e-06
4.92376e-08
-1.97921e-06
4.52816e-08
-1.98753e-06
4.13167e-08
-1.99494e-06
3.737e-08
-2.00146e-06
3.34706e-08
-2.00708e-06
2.96493e-08
-2.01186e-06
2.59387e-08
-2.01581e-06
2.23728e-08
-2.01898e-06
1.89863e-08
-2.02141e-06
1.58146e-08
-2.02318e-06
1.28926e-08
-2.02434e-06
1.02548e-08
-2.02497e-06
7.93397e-09
-2.02514e-06
5.96107e-09
-2.02495e-06
4.36479e-09
-2.02449e-06
3.17111e-09
-2.02385e-06
2.40158e-09
-2.02313e-06
2.07299e-09
-2.02244e-06
2.19718e-09
-2.02187e-06
2.77937e-09
-2.02154e-06
3.8167e-09
-2.02153e-06
5.29861e-09
-2.02195e-06
7.20712e-09
-2.02288e-06
9.5158e-09
-2.0244e-06
1.21902e-08
-2.02658e-06
1.51881e-08
-2.02948e-06
1.84598e-08
-2.03315e-06
2.19489e-08
-2.03761e-06
2.55925e-08
-2.04288e-06
2.93222e-08
-2.04895e-06
3.30647e-08
-2.05581e-06
3.67427e-08
-2.06341e-06
4.02754e-08
-2.0717e-06
4.35794e-08
-2.08059e-06
4.65695e-08
-2.08998e-06
4.91607e-08
-2.09976e-06
5.12686e-08
-2.10979e-06