/*--------------------------------*- C++ -*----------------------------------*\
| =========                 |                                                 |
| \\      /  F ield         | OpenFOAM: The Open Source CFD Toolbox           |
|  \\    /   O peration     | Version:  2.2.x                                 |
|   \\  /    A nd           | Web:      www.OpenFOAM.org                      |
|    \\/     M anipulation  |                                                 |
\*---------------------------------------------------------------------------*/
FoamFile
{
    version     2.0;
    format      ascii;
    class       volVectorField;
    location    "400";
    object      U;
}
// * * * * * * * * * * * * * * * * * * * * * * * * * * * * * * * * * * * * * //

dimensions      [0 1 -1 0 0 0 0];

internalField   nonuniform List<vector> 
12225
(
(9.83972 -1.23842 0)
(9.73875 -0.731493 0)
(9.53705 -0.46734 0)
(9.3233 -0.307416 0)
(9.12458 -0.205971 0)
(8.94108 -0.139614 0)
(8.7711 -0.094974 0)
(8.61386 -0.0642897 0)
(8.4686 -0.0428594 0)
(8.33441 -0.0277072 0)
(8.21035 -0.0168922 0)
(8.09559 -0.00912061 0)
(7.98936 -0.00351353 0)
(7.891 0.000540513 0)
(7.79982 0.00349688 0)
(7.71501 0.00587876 0)
(7.63075 0.00923464 0)
(7.56767 -0.0200224 0)
(10.0335 0.447384 0)
(10.0226 0.42692 0)
(9.9884 0.340218 0)
(9.94306 0.270954 0)
(9.89677 0.217771 0)
(9.84882 0.177173 0)
(9.7985 0.146608 0)
(9.74652 0.123606 0)
(9.69375 0.106142 0)
(9.64088 0.0927268 0)
(9.58841 0.0822861 0)
(9.53677 0.0740458 0)
(9.48629 0.067445 0)
(9.43724 0.0620854 0)
(9.38981 0.057726 0)
(9.34425 0.0544744 0)
(9.30213 0.0534637 0)
(9.26934 0.0669092 0)
(9.9929 0.0267687 0)
(10.0023 -0.00879115 0)
(10.0179 -0.0276152 0)
(10.0248 -0.0224955 0)
(10.028 -0.0111504 0)
(10.0284 0.000146551 0)
(10.0258 0.010203 0)
(10.0209 0.0187109 0)
(10.0142 0.0256362 0)
(10.0062 0.0311208 0)
(9.99733 0.0353734 0)
(9.98776 0.0386012 0)
(9.97775 0.0409872 0)
(9.9675 0.0426952 0)
(9.95725 0.0438986 0)
(9.94737 0.0448515 0)
(9.93904 0.0456278 0)
(9.93263 0.042949 0)
(9.99998 0.0196624 0)
(10.0124 0.0433244 0)
(10.0309 0.0556278 0)
(10.0413 0.0652126 0)
(10.0485 0.0705572 0)
(10.0546 0.0722634 0)
(10.0595 0.0720093 0)
(10.0633 0.0708244 0)
(10.0665 0.069198 0)
(10.0691 0.0673833 0)
(10.0713 0.0655176 0)
(10.0732 0.0636666 0)
(10.0748 0.0618522 0)
(10.0764 0.0600756 0)
(10.0779 0.058331 0)
(10.0798 0.0565843 0)
(10.0826 0.0545052 0)
(10.0865 0.0503756 0)
(10.0023 0.0186543 0)
(10.0144 0.0407597 0)
(10.0302 0.046744 0)
(10.0405 0.0490958 0)
(10.0486 0.0504662 0)
(10.0563 0.0509573 0)
(10.0633 0.0510843 0)
(10.0695 0.0511423 0)
(10.0753 0.0511705 0)
(10.0806 0.0511395 0)
(10.0857 0.0510196 0)
(10.0905 0.050785 0)
(10.0952 0.0504102 0)
(10.0998 0.0498666 0)
(10.1044 0.0491109 0)
(10.1092 0.0480321 0)
(10.1144 0.0462751 0)
(10.1198 0.0428317 0)
(10.0025 0.0188916 0)
(10.0131 0.0369343 0)
(10.027 0.0431183 0)
(10.0374 0.0463964 0)
(10.046 0.0490665 0)
(10.0542 0.0508206 0)
(10.0617 0.05185 0)
(10.0686 0.0524264 0)
(10.075 0.0526717 0)
(10.0811 0.05264 0)
(10.087 0.052368 0)
(10.0926 0.0518786 0)
(10.0981 0.0511777 0)
(10.1036 0.0502509 0)
(10.109 0.0490512 0)
(10.1146 0.0474602 0)
(10.1202 0.0452136 0)
(10.1257 0.04185 0)
(10.0022 0.016586 0)
(10.0111 0.0316502 0)
(10.0233 0.038585 0)
(10.0335 0.0425105 0)
(10.0422 0.0453952 0)
(10.0504 0.047228 0)
(10.0581 0.0482421 0)
(10.0652 0.0487434 0)
(10.0719 0.0488967 0)
(10.0783 0.0487782 0)
(10.0844 0.048429 0)
(10.0904 0.0478686 0)
(10.0962 0.0470955 0)
(10.1019 0.0460855 0)
(10.1076 0.0447836 0)
(10.1132 0.0430835 0)
(10.1187 0.040809 0)
(10.1239 0.0377617 0)
(10.0019 0.0146274 0)
(10.0095 0.0279838 0)
(10.0203 0.0352154 0)
(10.03 0.0394039 0)
(10.0386 0.0423364 0)
(10.0467 0.0442349 0)
(10.0543 0.0453331 0)
(10.0615 0.0459045 0)
(10.0682 0.0461072 0)
(10.0747 0.0460169 0)
(10.081 0.0456742 0)
(10.087 0.0450978 0)
(10.0929 0.0442863 0)
(10.0987 0.0432177 0)
(10.1043 0.0418447 0)
(10.1098 0.0400887 0)
(10.1151 0.0378437 0)
(10.1202 0.0350481 0)
(10.0017 0.0130362 0)
(10.0083 0.0250109 0)
(10.0178 0.032134 0)
(10.0269 0.0364135 0)
(10.0353 0.0393688 0)
(10.0432 0.0413124 0)
(10.0507 0.042469 0)
(10.0578 0.0430825 0)
(10.0646 0.0433047 0)
(10.0711 0.0432143 0)
(10.0774 0.0428547 0)
(10.0835 0.042247 0)
(10.0893 0.0413927 0)
(10.0951 0.0402747 0)
(10.1006 0.0388567 0)
(10.106 0.0370845 0)
(10.1111 0.0348976 0)
(10.116 0.0323045 0)
(10.0015 0.0114742 0)
(10.0071 0.0220428 0)
(10.0154 0.0288428 0)
(10.0238 0.0331131 0)
(10.0318 0.0360537 0)
(10.0394 0.0380124 0)
(10.0467 0.0392038 0)
(10.0538 0.0398437 0)
(10.0605 0.0400758 0)
(10.0669 0.0399808 0)
(10.0732 0.0396042 0)
(10.0792 0.0389697 0)
(10.085 0.0380828 0)
(10.0906 0.0369333 0)
(10.0961 0.0354985 0)
(10.1013 0.0337478 0)
(10.1062 0.0316573 0)
(10.1109 0.0292743 0)
(10.0013 0.00991754 0)
(10.006 0.019078 0)
(10.0132 0.0253916 0)
(10.0208 0.0295334 0)
(10.0283 0.0323898 0)
(10.0355 0.0343093 0)
(10.0426 0.0354949 0)
(10.0494 0.0361335 0)
(10.056 0.0363578 0)
(10.0623 0.0362474 0)
(10.0684 0.0358492 0)
(10.0743 0.0351893 0)
(10.08 0.0342781 0)
(10.0855 0.033114 0)
(10.0908 0.031688 0)
(10.0958 0.0299907 0)
(10.1005 0.0280239 0)
(10.1049 0.0258508 0)
(10.0011 0.00837896 0)
(10.005 0.0161543 0)
(10.0112 0.0218282 0)
(10.018 0.0257054 0)
(10.0249 0.028395 0)
(10.0317 0.0302129 0)
(10.0384 0.0313448 0)
(10.0449 0.0319489 0)
(10.0513 0.0321436 0)
(10.0574 0.0320046 0)
(10.0633 0.0315793 0)
(10.0691 0.0308963 0)
(10.0746 0.0299712 0)
(10.0799 0.0288111 0)
(10.0849 0.0274198 0)
(10.0897 0.0258034 0)
(10.0942 0.0239797 0)
(10.0984 0.0220141 0)
(10.0009 0.00687393 0)
(10.0042 0.0132915 0)
(10.0094 0.0181883 0)
(10.0155 0.0216587 0)
(10.0218 0.0240873 0)
(10.0281 0.025732 0)
(10.0344 0.0267538 0)
(10.0406 0.0272834 0)
(10.0466 0.0274218 0)
(10.0525 0.0272387 0)
(10.0582 0.0267802 0)
(10.0637 0.0260767 0)
(10.0689 0.0251487 0)
(10.074 0.0240108 0)
(10.0788 0.022676 0)
(10.0833 0.0211607 0)
(10.0876 0.01949 0)
(10.0916 0.0177242 0)
(10.0008 0.00540906 0)
(10.0035 0.010491 0)
(10.008 0.014498 0)
(10.0133 0.0174226 0)
(10.0189 0.0194856 0)
(10.0248 0.0208756 0)
(10.0306 0.021723 0)
(10.0365 0.0221311 0)
(10.0422 0.0221825 0)
(10.0478 0.0219378 0)
(10.0532 0.0214397 0)
(10.0584 0.0207192 0)
(10.0634 0.0197995 0)
(10.0682 0.0187001 0)
(10.0727 0.0174397 0)
(10.077 0.0160391 0)
(10.081 0.0145249 0)
(10.0849 0.0129492 0)
(10.0006 0.00398031 0)
(10.003 0.00773871 0)
(10.0067 0.0107654 0)
(10.0114 0.0130156 0)
(10.0165 0.0146023 0)
(10.0219 0.0156488 0)
(10.0273 0.0162502 0)
(10.0328 0.0164837 0)
(10.0381 0.0164123 0)
(10.0434 0.0160849 0)
(10.0485 0.0155386 0)
(10.0534 0.0148021 0)
(10.0582 0.0138989 0)
(10.0627 0.0128498 0)
(10.067 0.0116749 0)
(10.071 0.0103954 0)
(10.0748 0.00903556 0)
(10.0785 0.00763846 0)
(10.0006 0.0025708 0)
(10.0025 0.00500038 0)
(10.0058 0.00696837 0)
(10.0099 0.00842734 0)
(10.0146 0.00942682 0)
(10.0195 0.0100363 0)
(10.0245 0.0103161 0)
(10.0296 0.0103172 0)
(10.0346 0.0100826 0)
(10.0396 0.00964777 0)
(10.0444 0.00904105 0)
(10.0491 0.00828596 0)
(10.0535 0.00740284 0)
(10.0578 0.0064104 0)
(10.0619 0.00532678 0)
(10.0657 0.00417034 0)
(10.0693 0.00296088 0)
(10.0728 0.00173254 0)
(10.0005 0.00114905 0)
(10.0022 0.00221786 0)
(10.0052 0.00304889 0)
(10.0089 0.0036096 0)
(10.0131 0.00391547 0)
(10.0177 0.00399555 0)
(10.0224 0.00387787 0)
(10.0272 0.00358768 0)
(10.0319 0.00314738 0)
(10.0366 0.00257661 0)
(10.0412 0.00189237 0)
(10.0456 0.00110979 0)
(10.0498 0.000242791 0)
(10.0539 -0.000695243 0)
(10.0577 -0.00169115 0)
(10.0614 -0.00273171 0)
(10.0648 -0.00380269 0)
(10.0681 -0.00487754 0)
(10.0005 -0.000248169 0)
(10.0021 -0.00052858 0)
(10.0049 -0.000852544 0)
(10.0084 -0.00122931 0)
(10.0124 -0.00166157 0)
(10.0168 -0.00215197 0)
(10.0213 -0.00270197 0)
(10.0259 -0.00331083 0)
(10.0304 -0.00397623 0)
(10.0349 -0.004695 0)
(10.0393 -0.00546328 0)
(10.0435 -0.00627637 0)
(10.0476 -0.00712879 0)
(10.0515 -0.00801437 0)
(10.0552 -0.00892635 0)
(10.0587 -0.00985746 0)
(10.062 -0.0107993 0)
(10.0652 -0.0117329 0)
(10.0005 -0.00153695 0)
(10.0021 -0.00307029 0)
(10.0049 -0.00447366 0)
(10.0084 -0.00572467 0)
(10.0125 -0.00684066 0)
(10.0168 -0.00785623 0)
(10.0213 -0.00880151 0)
(10.0258 -0.00969886 0)
(10.0303 -0.0105656 0)
(10.0347 -0.0114148 0)
(10.039 -0.0122558 0)
(10.0432 -0.0130944 0)
(10.0472 -0.0139337 0)
(10.051 -0.0147747 0)
(10.0546 -0.015617 0)
(10.058 -0.0164589 0)
(10.0612 -0.0172968 0)
(10.0644 -0.0181179 0)
(10.0005 -0.00271858 0)
(10.0022 -0.00541483 0)
(10.0052 -0.00781016 0)
(10.0089 -0.00983655 0)
(10.0131 -0.0115389 0)
(10.0175 -0.0129947 0)
(10.0221 -0.0142639 0)
(10.0267 -0.0153903 0)
(10.0312 -0.0164098 0)
(10.0357 -0.0173511 0)
(10.0399 -0.0182354 0)
(10.0441 -0.0190776 0)
(10.048 -0.0198887 0)
(10.0518 -0.0206759 0)
(10.0554 -0.0214443 0)
(10.0588 -0.0221967 0)
(10.062 -0.0229337 0)
(10.0651 -0.0236468 0)
(10.0005 -0.00383782 0)
(10.0024 -0.00767798 0)
(10.0056 -0.0110215 0)
(10.0097 -0.0137334 0)
(10.0142 -0.0159277 0)
(10.0189 -0.0177454 0)
(10.0236 -0.0192741 0)
(10.0283 -0.0205776 0)
(10.033 -0.0217109 0)
(10.0375 -0.0227175 0)
(10.0418 -0.0236289 0)
(10.046 -0.024468 0)
(10.0499 -0.0252516 0)
(10.0537 -0.0259926 0)
(10.0573 -0.0267002 0)
(10.0606 -0.0273818 0)
(10.0638 -0.0280422 0)
(10.0669 -0.0286785 0)
(10.0005 -0.00489792 0)
(10.0026 -0.00993723 0)
(10.0063 -0.0142118 0)
(10.0109 -0.0175005 0)
(10.0157 -0.0200748 0)
(10.0207 -0.0221613 0)
(10.0256 -0.0238678 0)
(10.0305 -0.0252764 0)
(10.0353 -0.0264614 0)
(10.0399 -0.0274796 0)
(10.0443 -0.0283709 0)
(10.0485 -0.0291651 0)
(10.0524 -0.0298843 0)
(10.0562 -0.0305459 0)
(10.0598 -0.0311634 0)
(10.0631 -0.0317478 0)
(10.0663 -0.0323067 0)
(10.0693 -0.0328399 0)
(10.0005 -0.00586596 0)
(10.0027 -0.01227 0)
(10.0071 -0.0174818 0)
(10.0123 -0.0212492 0)
(10.0176 -0.0241373 0)
(10.0228 -0.0264481 0)
(10.028 -0.0282966 0)
(10.0331 -0.0297918 0)
(10.038 -0.0310306 0)
(10.0426 -0.0320778 0)
(10.0471 -0.0329766 0)
(10.0513 -0.0337583 0)
(10.0553 -0.0344473 0)
(10.0591 -0.0350629 0)
(10.0626 -0.0356212 0)
(10.066 -0.0361373 0)
(10.0691 -0.0366255 0)
(10.0721 -0.0370977 0)
(10.0002 -0.00666699 0)
(10.0027 -0.0147256 0)
(10.0079 -0.0206694 0)
(10.0138 -0.0246395 0)
(10.0195 -0.0276953 0)
(10.025 -0.030099 0)
(10.0304 -0.0319318 0)
(10.0356 -0.0333482 0)
(10.0405 -0.0344816 0)
(10.0452 -0.035413 0)
(10.0497 -0.036193 0)
(10.0539 -0.0368577 0)
(10.0579 -0.0374333 0)
(10.0616 -0.037939 0)
(10.0651 -0.0383904 0)
(10.0684 -0.038802 0)
(10.0714 -0.0391881 0)
(10.0743 -0.0395588 0)
(9.99981 -0.00725479 0)
(10.0023 -0.0181942 0)
(10.0087 -0.0247787 0)
(10.0153 -0.0287316 0)
(10.0212 -0.0320386 0)
(10.027 -0.0347771 0)
(10.0325 -0.0369018 0)
(10.0378 -0.0385535 0)
(10.0427 -0.0398576 0)
(10.0474 -0.0408899 0)
(10.0517 -0.041705 0)
(10.0559 -0.0423479 0)
(10.0597 -0.042854 0)
(10.0633 -0.0432507 0)
(10.0667 -0.0435602 0)
(10.0698 -0.0438043 0)
(10.0727 -0.0440114 0)
(10.0755 -0.0442249 0)
(9.9984 -0.00503969 0)
(10.0007 -0.020331 0)
(10.0088 -0.0271687 0)
(10.0159 -0.0298979 0)
(10.0217 -0.0318669 0)
(10.0274 -0.0333929 0)
(10.033 -0.0346152 0)
(10.0382 -0.0357157 0)
(10.043 -0.0367547 0)
(10.0476 -0.0377279 0)
(10.0518 -0.0386258 0)
(10.0558 -0.0394435 0)
(10.0595 -0.0401785 0)
(10.0629 -0.0408288 0)
(10.066 -0.0413936 0)
(10.0689 -0.0418745 0)
(10.0714 -0.0422824 0)
(10.0737 -0.0426433 0)
(9.99478 -0.00320169 0)
(9.99581 -0.0257097 0)
(10.0072 -0.0395126 0)
(10.0156 -0.048795 0)
(10.0216 -0.0547196 0)
(10.027 -0.0577136 0)
(10.032 -0.0588793 0)
(10.0364 -0.0590686 0)
(10.0404 -0.058727 0)
(10.0441 -0.0580927 0)
(10.0474 -0.0573115 0)
(10.0504 -0.0564725 0)
(10.0532 -0.0556257 0)
(10.0556 -0.0547946 0)
(10.0578 -0.0539841 0)
(10.0598 -0.0531858 0)
(10.0614 -0.0523936 0)
(10.0629 -0.0516159 0)
(9.98518 0.00575708 0)
(9.98185 0.0248456 0)
(9.99406 0.0364781 0)
(10.0036 0.0320941 0)
(10.0107 0.0222486 0)
(10.0165 0.0122145 0)
(10.0208 0.00304315 0)
(10.0237 -0.00507093 0)
(10.0254 -0.0120584 0)
(10.0263 -0.0179611 0)
(10.0265 -0.0228919 0)
(10.0261 -0.0269824 0)
(10.0251 -0.0303562 0)
(10.0238 -0.0331192 0)
(10.022 -0.0353537 0)
(10.02 -0.03711 0)
(10.0175 -0.0384037 0)
(10.0144 -0.0391296 0)
(10.0137 -0.317348 0)
(10.0101 -0.326338 0)
(9.9989 -0.271542 0)
(9.98274 -0.224915 0)
(9.9682 -0.188199 0)
(9.95416 -0.15888 0)
(9.93898 -0.135817 0)
(9.92237 -0.117814 0)
(9.90453 -0.103702 0)
(9.88569 -0.092547 0)
(9.86605 -0.0836547 0)
(9.84579 -0.0765041 0)
(9.82511 -0.0707006 0)
(9.80419 -0.0659412 0)
(9.78319 -0.0619853 0)
(9.76226 -0.0586212 0)
(9.7416 -0.05562 0)
(9.72055 -0.0523662 0)
(9.95412 0.913091 0)
(9.95404 0.560999 0)
(9.86621 0.37541 0)
(9.75281 0.258518 0)
(9.63869 0.180479 0)
(9.52753 0.126921 0)
(9.41958 0.0891522 0)
(9.31565 0.0619423 0)
(9.21636 0.0420515 0)
(9.12196 0.0273588 0)
(9.03247 0.0164205 0)
(8.9478 0.0082303 0)
(8.8678 0.00207479 0)
(8.79229 -0.00255848 0)
(8.72109 -0.00603947 0)
(8.65402 -0.00862853 0)
(8.59113 -0.0104706 0)
(8.5305 -0.0114107 0)
(0.0158931 -0.0418305 0)
(0.0374151 -0.0378691 0)
(0.0511934 -0.0227025 0)
(0.0542573 -0.00453967 0)
(0.0449627 0.0134603 0)
(0.0266322 0.0288979 0)
(0.000151351 0.040611 -2.73881e-19)
(-0.0318972 0.0471187 2.43485e-19)
(-0.0663602 0.0497906 0)
(-0.103096 0.0507783 1.79991e-19)
(-0.141224 0.0510268 0)
(-0.180282 0.0508966 0)
(-0.219965 0.0505266 0)
(-0.26004 0.0499744 -1.16294e-19)
(-0.300314 0.0492703 0)
(-0.340625 0.0484374 0)
(-0.380846 0.0474998 9.21779e-20)
(-0.420873 0.0464873 0)
(-0.460577 0.0454346 0)
(-0.499916 0.044385 0)
(-0.538866 0.0433542 -7.29866e-20)
(-0.577393 0.0423416 0)
(-0.615475 0.0413488 -6.64556e-20)
(-0.653098 0.0403787 0)
(-0.690251 0.0394343 0)
(-0.726932 0.0385186 -5.89577e-20)
(-0.763143 0.0376342 0)
(-0.79889 0.0367829 5.50372e-20)
(-0.834183 0.0359663 0)
(-0.869036 0.0351852 -5.17387e-20)
(-0.903464 0.0344401 0)
(-0.937486 0.0337309 0)
(-0.97112 0.0330571 0)
(-1.00439 0.0324178 0)
(-1.03731 0.031812 0)
(-1.06991 0.0312381 4.4343e-20)
(-1.1022 0.0306944 0)
(-1.13421 0.0301791 -8.48922e-20)
(-1.16596 0.0296902 0)
(-1.19747 0.0292254 8.14923e-20)
(-1.22875 0.0287824 0)
(-1.25981 0.0283588 0)
(-1.29068 0.0279521 -7.69815e-20)
(-1.32137 0.0275598 0)
(-1.35187 0.0271793 -7.42909e-20)
(-1.38221 0.026808 7.30251e-20)
(-1.41238 0.0264434 0)
(-1.44238 0.0260829 7.06318e-20)
(-1.47223 0.0257241 6.94972e-20)
(-1.5019 0.0253646 0)
(-1.5314 0.0250022 0)
(-1.56071 0.0246346 0)
(-1.58983 0.0242596 0)
(-1.61873 0.0238752 0)
(-1.64741 0.0234794 -6.33837e-20)
(-1.67584 0.0230702 0)
(-1.704 0.0226459 6.15578e-20)
(-1.73186 0.022205 0)
(-1.7594 0.021746 0)
(-1.78658 0.0212677 -5.89701e-20)
(-1.81338 0.0207689 0)
(-1.83976 0.0202487 5.73294e-20)
(-1.86569 0.0197066 0)
(-1.89112 0.0191419 0)
(-1.91602 0.0185547 0)
(-1.94034 0.0179449 -5.42055e-20)
(-1.96406 0.0173127 0)
(-1.98712 0.0166589 0)
(-2.0095 0.015984 -5.19654e-20)
(-2.03114 0.0152893 0)
(-2.05201 0.014576 -5.05055e-20)
(-2.07208 0.0138459 0)
(-2.0913 0.0131011 0)
(-2.10965 0.0123442 0)
(-2.1271 0.0115782 4.76326e-20)
(-2.14361 0.0108066 0)
(-2.15918 0.0100332 0)
(-2.17378 0.00926223 4.54929e-20)
(-2.18741 0.0084982 4.47787e-20)
(-2.20006 0.00774579 0)
(-2.21174 0.00700998 4.33452e-20)
(-2.22245 0.00629594 0)
(-2.23223 0.00560903 8.38037e-20)
(-2.24109 0.00495472 0)
(-2.24907 0.00433855 8.0892e-20)
(-2.25622 0.00376614 0)
(-2.2626 0.00324309 -7.79523e-20)
(-2.26828 0.00277505 0)
(-2.27332 0.00236742 0)
(-2.27781 0.00202532 0)
(-2.28185 0.00175338 7.19937e-20)
(-2.28554 0.00155566 0)
(-2.28899 0.00143532 -6.89851e-20)
(-2.29231 0.00139442 0)
(-2.29561 0.00143372 6.59683e-20)
(-2.29903 0.00155272 6.44604e-20)
(-2.30268 0.00174965 6.2955e-20)
(-2.3067 0.00202168 0)
(-2.31119 0.00236496 0)
(-2.31628 0.00277445 0)
(-2.32207 0.00324392 0)
(-2.32866 0.0037659 0)
(-2.33616 0.00433188 0)
(-2.34461 0.00493242 0)
(-2.35411 0.00555721 0)
(-2.36468 0.00619523 -4.97998e-20)
(-2.37635 0.0068349 -4.84079e-20)
(-2.38914 0.00746443 0)
(-2.40304 0.00807193 0)
(-2.418 0.00864571 0)
(-2.43398 0.00917438 -4.30015e-20)
(-2.45091 0.00964706 0)
(-2.46867 0.0100535 0)
(-2.48716 0.0103841 0)
(-2.50622 0.0106295 0)
(-2.5257 0.0107811 3.64732e-20)
(-2.54541 0.0108308 0)
(-2.56515 0.0107715 0)
(-2.58471 0.0105978 -3.2491e-20)
(-2.60383 0.0103053 3.11153e-20)
(-2.62228 0.00989112 0)
(-2.63976 0.00935321 2.82406e-20)
(-2.65602 0.00868913 0)
(-2.67077 0.00789269 -2.51362e-20)
(-2.6837 0.00695299 0)
(-2.69451 0.0058622 0)
(-2.70285 0.00462568 0)
(-2.70836 0.00326088 0)
(-2.71073 0.00179409 0)
(-2.70971 0.00022541 2.68858e-20)
(-2.70501 -0.00146172 2.19763e-20)
(-2.69631 -0.00326654 0)
(-2.68331 -0.00518511 0)
(-2.66572 -0.00721224 0)
(-2.64325 -0.00934442 1.76002e-21)
(-2.6156 -0.0115802 0)
(-2.58251 -0.0139164 0)
(-2.54372 -0.0163474 0)
(-2.499 -0.0188683 3.42083e-20)
(-2.44811 -0.0214732 -4.40996e-20)
(-2.39086 -0.0241536 0)
(-2.32707 -0.026905 0)
(-2.25661 -0.0297279 -7.92503e-20)
(-2.17933 -0.0326165 -9.31238e-20)
(-2.09514 -0.035561 0)
(-2.00398 -0.0385589 0)
(-1.90582 -0.0416127 1.4307e-19)
(-1.80067 -0.0447233 -1.63099e-19)
(-1.6886 -0.0478895 0)
(-1.56974 -0.0511011 0)
(-1.44421 -0.0543299 -2.37011e-19)
(-1.31223 -0.0575471 0)
(-1.17402 -0.0607504 0)
(-1.0299 -0.0640153 -3.41085e-19)
(-0.88018 -0.0675935 0)
(-0.725154 -0.0717932 -4.37778e-19)
(-0.565311 -0.0766786 0)
(-0.400087 -0.0820532 0)
(-0.234416 -0.0869993 0)
(-0.0587667 -0.0881592 7.32118e-19)
(0.117611 -0.0848777 0)
(0.288262 -0.0810415 0)
(0.4574 -0.0774289 0)
(0.623971 -0.0739451 0)
(0.787322 -0.0705187 0)
(0.946772 -0.067103 0)
(1.10166 -0.0636646 4.96521e-19)
(1.25134 -0.0601853 4.77686e-19)
(1.39519 -0.0566574 0)
(1.53264 -0.0530754 0)
(1.66313 -0.0494414 0)
(1.78616 -0.0457583 -4.23989e-19)
(1.9012 -0.0420181 0)
(2.00771 -0.0381944 8.13099e-19)
(2.10496 -0.0342144 -7.99659e-19)
(2.19184 -0.029902 -7.89098e-19)
(2.2666 -0.0248956 7.82072e-19)
(2.32459 -0.0181247 -7.80211e-19)
(2.36098 -0.00735791 7.87851e-19)
(2.30874 0.0224513 0)
(0.00359085 -0.0721961 0)
(0.0043903 -0.0438028 0)
(-0.00578286 -0.00869361 2.19276e-19)
(-0.0213889 0.0231613 0)
(-0.0405678 0.0498695 -1.42868e-19)
(-0.0628061 0.071048 -1.29713e-19)
(-0.0877052 0.0868091 -6.02473e-20)
(-0.115094 0.0976371 -5.67535e-20)
(-0.144761 0.10468 0)
(-0.176435 0.109165 -5.04823e-20)
(-0.209682 0.111921 0)
(-0.244096 0.113487 0)
(-0.279345 0.114193 8.53441e-20)
(-0.315171 0.114244 4.06373e-20)
(-0.35137 0.113779 -7.71717e-20)
(-0.387782 0.112897 -7.36441e-20)
(-0.424279 0.111682 -3.53289e-20)
(-0.460762 0.110204 0)
(-0.497144 0.108536 0)
(-0.533349 0.106737 0)
(-0.569312 0.104848 -3.00613e-20)
(-0.604982 0.102898 0)
(-0.64032 0.100912 8.48388e-20)
(-0.675298 0.0989097 0)
(-0.709895 0.0969099 0)
(-0.744101 0.0949279 2.60073e-20)
(-0.777909 0.0929769 0)
(-0.811316 0.0910676 -2.47271e-20)
(-0.844327 0.0892089 -4.81207e-20)
(-0.876947 0.0874076 2.36212e-20)
(-0.909188 0.0856687 0)
(-0.941059 0.0839957 0)
(-0.972576 0.0823907 0)
(-1.00375 0.0808546 -4.3442e-20)
(-1.03461 0.0793871 -4.26705e-20)
(-1.06516 0.0779869 -2.10579e-20)
(-1.09542 0.0766519 0)
(-1.12541 0.0753793 4.07694e-20)
(-1.15514 0.0741657 0)
(-1.18464 0.073007 -3.9553e-20)
(-1.21391 0.0718987 0)
(-1.24297 0.0708358 0)
(-1.27183 0.0698132 3.79233e-20)
(-1.3005 0.0688253 0)
(-1.32899 0.0678665 1.10507e-19)
(-1.35731 0.0669308 -3.64738e-20)
(-1.38546 0.0660125 0)
(-1.41343 0.0651057 -3.55837e-20)
(-1.44124 0.0642044 -3.5157e-20)
(-1.46888 0.063303 0)
(-1.49633 0.0623959 0)
(-1.5236 0.0614775 0)
(-1.55067 0.0605426 0)
(-1.57753 0.059586 0)
(-1.60416 0.0586029 3.27803e-20)
(-1.63054 0.0575886 6.4545e-20)
(-1.65666 0.0565387 -3.2035e-20)
(-1.68249 0.0554493 0)
(-1.708 0.0543169 6.2356e-20)
(-1.73316 0.0531382 -3.06966e-20)
(-1.75795 0.0519106 0)
(-1.78234 0.0506318 -3.02178e-20)
(-1.80629 0.0493003 0)
(-1.82976 0.0479148 0)
(-1.85272 0.0464751 -5.80651e-20)
(-1.87514 0.0449812 2.87752e-20)
(-1.89698 0.043434 -5.66319e-20)
(-1.9182 0.0418349 5.59112e-20)
(-1.93876 0.0401862 2.76817e-20)
(-1.95863 0.0384908 0)
(-1.97778 0.0367524 2.69426e-20)
(-1.99616 0.0349757 0)
(-2.01376 0.033166 0)
(-2.03053 0.0313298 0)
(-2.04646 0.0294741 2.53079e-20)
(-2.06153 0.0276071 0)
(-2.07571 0.0257379 4.92115e-20)
(-2.089 0.0238762 -7.27064e-20)
(-2.10139 0.0220325 -2.38745e-20)
(-2.11288 0.0202178 0)
(-2.12348 0.018444 -2.30786e-20)
(-2.13319 0.0167233 0)
(-2.14205 0.0150682 -4.4546e-20)
(-2.15008 0.0134915 0)
(-2.15731 0.0120061 -4.29198e-20)
(-2.16379 0.0106248 8.41131e-20)
(-2.16958 0.00935983 4.12839e-20)
(-2.17474 0.00822316 0)
(-2.17934 0.0072259 0)
(-2.18346 0.00637831 0)
(-2.18718 0.00568967 -3.8012e-20)
(-2.1906 0.00516794 0)
(-2.19381 0.00481943 3.63924e-20)
(-2.19693 0.00464832 0)
(-2.20006 0.00465632 -1.04298e-19)
(-2.20331 0.00484231 -3.40077e-20)
(-2.20679 0.00520231 -3.32288e-20)
(-2.21061 0.00572952 0)
(-2.21489 0.00641448 0)
(-2.21971 0.00724505 0)
(-2.22518 0.0082065 0)
(-2.23138 0.00928171 0)
(-2.23839 0.0104514 -5.73751e-20)
(-2.24627 0.0116944 -5.59618e-20)
(-2.25506 0.0129878 0)
(-2.2648 0.0143074 2.67171e-20)
(-2.27551 0.0156275 2.60531e-20)
(-2.28719 0.0169218 0)
(-2.2998 0.0181635 4.92585e-20)
(-2.31331 0.0193256 0)
(-2.32767 0.0203814 -2.32281e-20)
(-2.34277 0.0213052 0)
(-2.35852 0.0220722 0)
(-2.3748 0.0226592 4.29801e-20)
(-2.39145 0.0230448 0)
(-2.40831 0.0232087 -2.03564e-20)
(-2.4252 0.0231325 0)
(-2.4419 0.0227998 0)
(-2.4582 0.0221969 -1.81814e-20)
(-2.47386 0.0213124 -1.76625e-20)
(-2.48862 0.020138 0)
(-2.50222 0.0186685 1.60479e-20)
(-2.51439 0.0169001 0)
(-2.52484 0.0148241 -1.44412e-20)
(-2.5333 0.0124242 -2.71226e-20)
(-2.53944 0.00968886 0)
(-2.54291 0.00663109 0)
(-2.54338 0.00329035 0)
(-2.54068 -0.00029895 0)
(-2.53448 -0.00413666 -1.56594e-20)
(-2.52446 -0.00822999 -3.9015e-20)
(-2.51033 -0.0125731 0)
(-2.49179 -0.0171546 0)
(-2.46856 -0.0219588 0)
(-2.44034 -0.0269687 -1.01968e-21)
(-2.40686 -0.0321684 0)
(-2.36786 -0.0375414 0)
(-2.32308 -0.0430676 2.7199e-20)
(-2.27228 -0.048726 1.77864e-20)
(-2.21524 -0.0544931 2.49245e-20)
(-2.15176 -0.0603402 0)
(-2.08168 -0.0662392 0)
(-2.00482 -0.0721706 4.35674e-20)
(-1.92107 -0.078112 -4.80698e-20)
(-1.8303 -0.0840265 0)
(-1.73246 -0.0898831 0)
(-1.62752 -0.0956636 -7.41948e-20)
(-1.51545 -0.101336 2.4555e-19)
(-1.39632 -0.106868 0)
(-1.27021 -0.112226 0)
(-1.13722 -0.117347 1.11856e-19)
(-0.997538 -0.122189 0)
(-0.851396 -0.126739 2.62298e-19)
(-0.699102 -0.131015 -1.40108e-19)
(-0.540966 -0.135232 0)
(-0.37737 -0.139604 1.68786e-19)
(-0.208572 -0.144091 3.57875e-19)
(-0.0322241 -0.148145 0)
(0.143375 -0.151509 0)
(0.319457 -0.152015 -1.91117e-19)
(0.49526 -0.149327 0)
(0.669167 -0.145923 3.77769e-19)
(0.840634 -0.142139 0)
(1.00891 -0.137971 0)
(1.1733 -0.133406 0)
(1.3331 -0.128438 0)
(1.48768 -0.123077 -1.92264e-19)
(1.63645 -0.117346 -1.9279e-19)
(1.77886 -0.111272 0)
(1.91444 -0.104888 0)
(2.04273 -0.098225 0)
(2.16334 -0.0913071 1.95882e-19)
(2.27587 -0.0841331 0)
(2.3799 -0.0766496 -3.96107e-19)
(2.47488 -0.0687014 3.98766e-19)
(2.55994 -0.0599162 4.01969e-19)
(2.6338 -0.0494922 4.03617e-19)
(2.69317 -0.03538 4.11841e-19)
(2.73744 -0.0127792 4.19241e-19)
(2.73312 0.0339531 0)
(-0.0111714 -0.0581402 0)
(-0.0251228 -0.0099409 0)
(-0.0449713 0.0320692 -1.33938e-19)
(-0.066698 0.0664618 -9.90283e-20)
(-0.0894047 0.0951533 8.3518e-20)
(-0.112756 0.118718 7.47984e-20)
(-0.137018 0.137413 5.71411e-23)
(-0.162501 0.151612 0)
(-0.189379 0.16196 0)
(-0.217632 0.169227 0)
(-0.247092 0.174105 0)
(-0.277541 0.177147 0)
(-0.308759 0.178773 -1.51144e-19)
(-0.340552 0.179293 0)
(-0.372754 0.178938 4.61984e-20)
(-0.405229 0.177887 4.43369e-20)
(-0.437863 0.176282 0)
(-0.470564 0.17424 0)
(-0.503251 0.171861 0)
(-0.535855 0.169227 0)
(-0.568315 0.166406 3.70634e-20)
(-0.600583 0.163452 0)
(-0.63262 0.160411 -3.48958e-20)
(-0.664395 0.157322 0)
(-0.695886 0.154217 0)
(-0.727075 0.151123 0)
(-0.757952 0.148064 -6.27216e-20)
(-0.78851 0.145058 0)
(-0.818747 0.142121 3.00652e-20)
(-0.848664 0.139265 -5.87096e-20)
(-0.878265 0.1365 0)
(-0.907558 0.133831 0)
(-0.936549 0.131263 0)
(-0.965251 0.128798 2.73178e-20)
(-0.993674 0.126438 2.68629e-20)
(-1.02183 0.12418 0)
(-1.04973 0.122022 0)
(-1.07739 0.11996 -5.11084e-20)
(-1.10483 0.117989 -5.03763e-20)
(-1.13205 0.116104 4.96792e-20)
(-1.15906 0.114297 0)
(-1.18588 0.112561 0)
(-1.21252 0.110889 0)
(-1.23899 0.109271 0)
(-1.26528 0.1077 -4.67831e-20)
(-1.29141 0.106166 -4.60715e-20)
(-1.31738 0.104659 4.55434e-20)
(-1.34319 0.103172 0)
(-1.36884 0.101694 0)
(-1.39433 0.100217 0)
(-1.41964 0.0987308 0)
(-1.44478 0.0972279 -4.31015e-20)
(-1.46973 0.0956994 0)
(-1.49448 0.0941371 0)
(-1.51901 0.0925333 -4.17424e-20)
(-1.54331 0.0908807 -4.14427e-20)
(-1.56735 0.0891725 0)
(-1.59112 0.0874023 8.0846e-20)
(-1.6146 0.0855646 -4.01212e-20)
(-1.63775 0.0836545 3.96828e-20)
(-1.66054 0.0816677 0)
(-1.68296 0.079601 0)
(-1.70496 0.0774517 0)
(-1.72651 0.0752185 0)
(-1.74759 0.0729006 3.74739e-20)
(-1.76815 0.0704985 7.38362e-20)
(-1.78816 0.0680138 3.65712e-20)
(-1.80759 0.0654492 -3.61138e-20)
(-1.8264 0.0628085 0)
(-1.84456 0.0600969 7.01949e-20)
(-1.86203 0.0573207 6.92612e-20)
(-1.87879 0.0544878 6.8317e-20)
(-1.89481 0.0516073 -6.73622e-20)
(-1.91005 0.0486896 0)
(-1.92449 0.0457466 -9.81935e-20)
(-1.93813 0.0427914 0)
(-1.95092 0.0398384 3.16614e-20)
(-1.96288 0.0369032 3.1263e-20)
(-1.97399 0.0340025 0)
(-1.98425 0.0311538 0)
(-1.99367 0.0283757 5.93378e-20)
(-2.00226 0.0256872 0)
(-2.01004 0.0231082 5.7238e-20)
(-2.01704 0.0206587 0)
(-2.0233 0.0183585 -5.51126e-20)
(-2.02885 0.0162275 -1.08141e-19)
(-2.03375 0.0142846 0)
(-2.03806 0.0125477 0)
(-2.04184 0.0110334 0)
(-2.04517 0.00975674 -4.97521e-20)
(-2.04813 0.00873101 0)
(-2.0508 0.00796723 -4.76202e-20)
(-2.05328 0.00747378 0)
(-2.05566 0.00725581 0)
(-2.05805 0.00731482 8.9024e-20)
(-2.06055 0.00764817 0)
(-2.06326 0.00824885 4.24364e-20)
(-2.06627 0.00910536 0)
(-2.0697 0.0102019 4.04547e-20)
(-2.07362 0.0115185 0)
(-2.07814 0.013031 0)
(-2.08332 0.0147115 0)
(-2.08923 0.0165289 1.10239e-19)
(-2.09594 0.0184489 3.59508e-20)
(-2.10347 0.0204351 0)
(-2.11186 0.0224488 0)
(-2.12111 0.0244497 0)
(-2.13122 0.0263964 0)
(-2.14217 0.028247 -3.1808e-20)
(-2.15391 0.029959 6.17329e-20)
(-2.16638 0.0314906 3.0253e-20)
(-2.17948 0.032801 -5.86697e-20)
(-2.19312 0.0338511 -5.71604e-20)
(-2.20718 0.034604 -2.79688e-20)
(-2.2215 0.0350252 0)
(-2.23593 0.0350831 -5.26273e-20)
(-2.25028 0.034749 0)
(-2.26435 0.033998 4.95012e-20)
(-2.27794 0.0328087 2.40071e-20)
(-2.29081 0.0311632 0)
(-2.30271 0.0290479 -4.44063e-20)
(-2.31338 0.0264533 -2.12738e-20)
(-2.32256 0.0233716 0)
(-2.32998 0.0197894 -1.9279e-20)
(-2.33537 0.015689 5.42183e-20)
(-2.33841 0.0110656 0)
(-2.33874 0.00595767 0)
(-2.33621 0.000421015 0)
(-2.3305 -0.00552682 0)
(-2.32132 -0.0118898 2.17642e-20)
(-2.30837 -0.0186629 1.75201e-20)
(-2.29136 -0.0258319 0)
(-2.27002 -0.0333782 0)
(-2.24405 -0.0412787 0)
(-2.21317 -0.0495066 0)
(-2.17712 -0.0580331 0)
(-2.13564 -0.0668282 0)
(-2.08848 -0.0758599 -1.81286e-20)
(-2.03539 -0.0850928 -1.28942e-21)
(-1.97615 -0.094486 0)
(-1.91057 -0.103994 0)
(-1.83847 -0.11357 -4.58105e-20)
(-1.75968 -0.123174 0)
(-1.67406 -0.13277 6.46718e-20)
(-1.58149 -0.142299 7.20844e-20)
(-1.48189 -0.151701 0)
(-1.37521 -0.160939 0)
(-1.26141 -0.169953 -1.0426e-19)
(-1.14051 -0.178665 -2.25527e-19)
(-1.01256 -0.187022 0)
(-0.877651 -0.194927 0)
(-0.73591 -0.202351 0)
(-0.587571 -0.209301 -1.60658e-19)
(-0.43291 -0.215775 1.72351e-19)
(-0.272097 -0.221925 0)
(-0.105503 -0.227559 3.83482e-19)
(0.0663723 -0.232254 1.95071e-19)
(0.239894 -0.235206 -4.02009e-19)
(0.413713 -0.236431 0)
(0.587682 -0.235473 0)
(0.761249 -0.232238 -4.17567e-19)
(0.933405 -0.227816 -2.14052e-19)
(1.10305 -0.222482 0)
(1.26924 -0.216303 0)
(1.43113 -0.209324 0)
(1.58798 -0.201595 0)
(1.73916 -0.193178 -4.49479e-19)
(1.88408 -0.184141 0)
(2.02225 -0.174555 0)
(2.15328 -0.164489 0)
(2.27679 -0.154007 0)
(2.39248 -0.143151 0)
(2.50007 -0.131922 0)
(2.59926 -0.120244 -4.94744e-19)
(2.68965 -0.107893 0)
(2.77063 -0.0943588 0)
(2.84142 -0.0785868 -1.03922e-18)
(2.89996 -0.0581951 5.29018e-19)
(2.94827 -0.0282173 -5.44574e-19)
(2.96909 0.0229644 5.53562e-19)
(-0.0209808 -0.013774 0)
(-0.0415383 0.041901 3.68131e-19)
(-0.0651049 0.0829973 0)
(-0.0901383 0.116522 7.51276e-20)
(-0.114998 0.144833 0)
(-0.139443 0.168599 0)
(-0.163843 0.188089 -5.06331e-20)
(-0.188567 0.203571 0)
(-0.213863 0.215442 0)
(-0.239853 0.224201 0)
(-0.266552 0.230362 0)
(-0.293902 0.234394 0)
(-0.321812 0.236701 1.47734e-19)
(-0.350176 0.237613 7.08268e-20)
(-0.378891 0.237399 -6.80277e-20)
(-0.407861 0.236276 0)
(-0.437002 0.234421 0)
(-0.466239 0.231982 0)
(-0.495506 0.22908 0)
(-0.524746 0.225819 0)
(-0.553909 0.222285 5.52028e-20)
(-0.582953 0.218551 5.35923e-20)
(-0.611842 0.21468 -5.20996e-20)
(-0.640549 0.210722 5.07144e-20)
(-0.669049 0.206722 0)
(-0.697326 0.202719 0)
(-0.725366 0.198744 4.71799e-20)
(-0.75316 0.194823 0)
(-0.780703 0.190978 0)
(-0.807991 0.187227 4.42633e-20)
(-0.835026 0.183582 4.33386e-20)
(-0.86181 0.180054 4.25382e-20)
(-0.888347 0.17665 0)
(-0.914643 0.173374 0)
(-0.940706 0.170228 -4.04089e-20)
(-0.966545 0.167211 0)
(-0.992167 0.16432 0)
(-1.01758 0.161552 3.86926e-20)
(-1.0428 0.158901 -3.79942e-20)
(-1.06783 0.15636 3.74813e-20)
(-1.09268 0.15392 0)
(-1.11736 0.151572 0)
(-1.14188 0.149306 7.23124e-20)
(-1.16624 0.147112 0)
(-1.19044 0.144978 7.06226e-20)
(-1.21449 0.142892 1.04812e-19)
(-1.2384 0.140843 -1.0365e-19)
(-1.26216 0.138819 6.8298e-20)
(-1.28577 0.136807 0)
(-1.30922 0.134795 0)
(-1.33252 0.132772 6.61599e-20)
(-1.35565 0.130725 3.28096e-20)
(-1.3786 0.128644 0)
(-1.40135 0.126518 0)
(-1.42391 0.124335 3.18125e-20)
(-1.44624 0.122087 6.28463e-20)
(-1.46833 0.119763 0)
(-1.49017 0.117356 -6.16859e-20)
(-1.51172 0.114858 6.09281e-20)
(-1.53295 0.112261 -6.02912e-20)
(-1.55386 0.109561 0)
(-1.5744 0.106752 0)
(-1.59454 0.103832 0)
(-1.61426 0.100798 0)
(-1.63352 0.0976487 0)
(-1.65229 0.0943853 -5.64967e-20)
(-1.67054 0.0910097 0)
(-1.68822 0.0875256 0)
(-1.70532 0.0839383 0)
(-1.72178 0.0802548 -1.07477e-19)
(-1.73759 0.0764841 -5.30672e-20)
(-1.75271 0.0726367 -5.2355e-20)
(-1.76711 0.0687253 1.03218e-19)