# vtk DataFile Version 2.0
track0
ASCII
DATASET POLYDATA
POINTS 11965 float
-0.0205 0.001 1e-05
-0.0202034 0.0010001 1e-05
-0.0199069 0.00100036 1e-05
-0.0196103 0.00100073 1e-05
-0.0193137 0.00100122 1e-05
-0.0190172 0.00100182 1e-05
-0.0187132 0.00100307 1e-05
-0.0184093 0.00100351 1e-05
-0.0181054 0.00100393 1e-05
-0.0178015 0.00100432 1e-05
-0.0174976 0.00100469 1e-05
-0.0172058 0.00100562 1e-05
-0.016914 0.00100588 1e-05
-0.0166222 0.00100615 1e-05
-0.0163305 0.00100644 1e-05
-0.0160387 0.00100675 1e-05
-0.0157586 0.00100758 1e-05
-0.0154784 0.00100794 1e-05
-0.0151983 0.00100835 1e-05
-0.0149182 0.00100881 1e-05
-0.0146381 0.00100932 1e-05
-0.0143692 0.00101024 1e-05
-0.0141002 0.00101084 1e-05
-0.0138313 0.00101149 1e-05
-0.0135624 0.00101218 1e-05
-0.0132934 0.00101292 1e-05
-0.0130353 0.00101394 1e-05
-0.0127771 0.00101475 1e-05
-0.0125189 0.0010156 1e-05
-0.0122607 0.00101648 1e-05
-0.0120025 0.0010174 1e-05
-0.0117547 0.00101849 1e-05
-0.0115068 0.00101945 1e-05
-0.0112589 0.00102044 1e-05
-0.0110111 0.00102146 1e-05
-0.0107632 0.00102251 1e-05
-0.0105252 0.00102365 1e-05
-0.0102873 0.00102472 1e-05
-0.0100493 0.00102581 1e-05
-0.00981133 0.00102693 1e-05
-0.00957337 0.00102807 1e-05
-0.00934491 0.00102924 1e-05
-0.00911645 0.00103038 1e-05
-0.00888799 0.00103154 1e-05
-0.00865954 0.00103271 1e-05
-0.00843108 0.00103391 1e-05
-0.00821175 0.0010351 1e-05
-0.00799242 0.00103628 1e-05
-0.00777309 0.00103748 1e-05
-0.00755376 0.00103869 1e-05
-0.00733443 0.00103992 1e-05
-0.00732283 0.00103999 1e-05
-0.00731124 0.00104006 1e-05
-0.00729964 0.00104012 1e-05
-0.00728804 0.00104019 1e-05
-0.00727649 0.00104025 1e-05
-0.00707751 0.00104139 1e-05
-0.00687853 0.00104253 1e-05
-0.00667956 0.00104369 1e-05
-0.00648058 0.00104486 1e-05
-0.0062816 0.00104604 1e-05
-0.00607944 0.00104725 1e-05
-0.00587729 0.00104847 1e-05
-0.00567514 0.00104971 1e-05
-0.00547298 0.00105096 1e-05
-0.00527083 0.00105222 1e-05
-0.00507675 0.00105344 1e-05
-0.00488267 0.00105467 1e-05
-0.0046886 0.00105592 1e-05
-0.00449452 0.00105718 1e-05
-0.00430044 0.00105846 1e-05
-0.00411412 0.00105968 1e-05
-0.0039278 0.00106093 1e-05
-0.00374147 0.0010622 1e-05
-0.00355515 0.00106348 1e-05
-0.00336883 0.00106478 1e-05
-0.00318995 0.00106602 1e-05
-0.00301107 0.0010673 1e-05
-0.00283219 0.00106859 1e-05
-0.00265331 0.0010699 1e-05
-0.00247443 0.00107124 1e-05
-0.0023027 0.00107252 1e-05
-0.00213097 0.00107384 1e-05
-0.00195924 0.00107519 1e-05
-0.00178751 0.00107656 1e-05
-0.00161577 0.00107796 1e-05
-0.0014509 0.00107932 1e-05
-0.00128603 0.00108072 1e-05
-0.00112116 0.00108215 1e-05
-0.000956291 0.00108361 1e-05
-0.000791418 0.00108511 1e-05
-0.000633135 0.00108657 1e-05
-0.000474852 0.00108807 1e-05
-0.000316569 0.0010896 1e-05
-0.000158286 0.00109117 1e-05
1.35525e-20 0.00109276 1e-05
0.000105677 0.00109384 1e-05
0.000211355 0.00109494 1e-05
0.000317031 0.00109607 1e-05
0.000422708 0.00109722 1e-05
0.000528387 0.00109839 1e-05
0.000634886 0.00109958 1e-05
0.000741385 0.00110081 1e-05
0.000847883 0.00110208 1e-05
0.000954381 0.00110337 1e-05
0.00106088 0.00110469 1e-05
0.00116821 0.00110603 1e-05
0.00127554 0.00110744 1e-05
0.00138286 0.00110887 1e-05
0.00149019 0.00111034 1e-05
0.00159752 0.00111184 1e-05
0.00170568 0.00111337 1e-05
0.00181384 0.00111496 1e-05
0.001922 0.00111659 1e-05
0.00203016 0.00111826 1e-05
0.00213833 0.00111997 1e-05
0.00224733 0.00112171 1e-05
0.00235633 0.00112352 1e-05
0.00246533 0.00112537 1e-05
0.00257433 0.00112727 1e-05
0.00268334 0.00112922 1e-05
0.00279319 0.00113119 1e-05
0.00290304 0.00113324 1e-05
0.00301288 0.00113534 1e-05
0.00312273 0.00113748 1e-05
0.00323259 0.00113968 1e-05
0.00334329 0.0011419 1e-05
0.00345399 0.0011442 1e-05
0.00356469 0.00114655 1e-05
0.00367539 0.00114895 1e-05
0.00378611 0.0011514 1e-05
0.00389767 0.00115387 1e-05
0.00400923 0.00115643 1e-05
0.0041208 0.00115903 1e-05
0.00423236 0.00116169 1e-05
0.00434393 0.00116438 1e-05
0.00445636 0.0011671 1e-05
0.00456879 0.00116991 1e-05
0.00468122 0.00117276 1e-05
0.00479365 0.00117565 1e-05
0.00490609 0.00117859 1e-05
0.0050194 0.00118154 1e-05
0.0051327 0.00118458 1e-05
0.005246 0.00118767 1e-05
0.0053593 0.00119079 1e-05
0.00547262 0.00119395 1e-05
0.00558681 0.00119713 1e-05
0.00570099 0.00120039 1e-05
0.00581518 0.0012037 1e-05
0.00592936 0.00120704 1e-05
0.00604356 0.00121041 1e-05
0.00615863 0.0012138 1e-05
0.0062737 0.00121727 1e-05
0.00638878 0.00122078 1e-05
0.00650385 0.00122433 1e-05
0.00661893 0.00122789 1e-05
0.0067349 0.00123148 1e-05
0.00685087 0.00123513 1e-05
0.00696683 0.00123884 1e-05
0.0070828 0.00124257 1e-05
0.00719878 0.00124631 1e-05
0.00731565 0.00125007 1e-05
0.00743252 0.0012539 1e-05
0.00754939 0.00125778 1e-05
0.00766625 0.00126169 1e-05
0.00778313 0.00126559 1e-05
0.00790091 0.00126951 1e-05
0.00801869 0.00127349 1e-05
0.00813647 0.00127753 1e-05
0.00825424 0.00128159 1e-05
0.00837203 0.00128563 1e-05
0.00849073 0.00128969 1e-05
0.00860942 0.0012938 1e-05
0.00872811 0.00129798 1e-05
0.0088468 0.00130217 1e-05
0.00896551 0.00130634 1e-05
0.00908513 0.00131052 1e-05
0.00920475 0.00131475 1e-05
0.00932436 0.00131904 1e-05
0.00944397 0.00132334 1e-05
0.0095636 0.00132762 1e-05
0.00968415 0.0013319 1e-05
0.0098047 0.00133623 1e-05
0.00992524 0.00134061 1e-05
0.0100458 0.00134501 1e-05
0.0101663 0.00134937 1e-05
0.0102878 0.00135372 1e-05
0.0104093 0.00135813 1e-05
0.0105308 0.00136259 1e-05
0.0106523 0.00136705 1e-05
0.0107738 0.00137148 1e-05
0.0108962 0.00137589 1e-05
0.0110186 0.00138036 1e-05
0.0111411 0.00138486 1e-05
0.0112635 0.00138937 1e-05
0.0113859 0.00139384 1e-05
0.0115093 0.00139829 1e-05
0.0116327 0.00140278 1e-05
0.0117561 0.00140731 1e-05
0.0118794 0.00141184 1e-05
0.0120028 0.00141632 1e-05
0.0121272 0.00142079 1e-05
0.0122515 0.00142529 1e-05
0.0123759 0.00142981 1e-05
0.0125002 0.00143432 1e-05
0.0126245 0.00143879 1e-05
0.0127498 0.00144324 1e-05
0.0128752 0.00144771 1e-05
0.0130005 0.00145219 1e-05
0.0131258 0.00145665 1e-05
0.0132511 0.00146108 1e-05
0.0133774 0.00146548 1e-05
0.0135036 0.00146989 1e-05
0.0136299 0.0014743 1e-05
0.0137562 0.00147868 1e-05
0.0138825 0.00148302 1e-05
0.0140098 0.00148734 1e-05
0.014137 0.00149165 1e-05
0.0142643 0.00149594 1e-05
0.0143915 0.0015002 1e-05
0.0145188 0.00150442 1e-05
0.0146471 0.0015086 1e-05
0.0147753 0.00151276 1e-05
0.0149036 0.00151689 1e-05
0.0150318 0.00152098 1e-05
0.0151601 0.00152501 1e-05
0.0152893 0.001529 1e-05
0.0154186 0.00153297 1e-05
0.0155478 0.00153687 1e-05
0.0156771 0.00154072 1e-05
0.0158063 0.0015445 1e-05
0.0159366 0.00154823 1e-05
0.0160668 0.00155192 1e-05
0.0161971 0.00155553 1e-05
0.0163274 0.00155906 1e-05
0.0164576 0.00156251 1e-05
0.0165889 0.0015659 1e-05
0.0167201 0.00156922 1e-05
0.0168514 0.00157244 1e-05
0.0169827 0.00157556 1e-05
0.0171139 0.00157859 1e-05
0.0172462 0.00158153 1e-05
0.0173785 0.00158438 1e-05
0.0175108 0.0015871 1e-05
0.0176431 0.0015897 1e-05
0.0177754 0.00159218 1e-05
0.0179087 0.00159455 1e-05
0.018042 0.00159678 1e-05
0.0181753 0.00159887 1e-05
0.0183087 0.00160081 1e-05
0.018442 0.00160261 1e-05
0.0185763 0.00160427 1e-05
0.0187107 0.00160575 1e-05
0.018845 0.00160706 1e-05
0.0189794 0.0016082 1e-05
0.0191137 0.00160916 1e-05
0.0192491 0.00160997 1e-05
0.0193845 0.00161056 1e-05
0.0195199 0.00161095 1e-05
0.0196553 0.00161114 1e-05
0.0197907 0.00161113 1e-05
0.0199272 0.00161095 1e-05
0.0200636 0.00161051 1e-05
0.0202001 0.00160984 1e-05
0.0203365 0.00160896 1e-05
0.020473 0.00160784 1e-05
0.0206105 0.00160655 1e-05
0.020748 0.00160496 1e-05
0.0208855 0.00160312 1e-05
0.021023 0.00160103 1e-05
0.0211606 0.00159869 1e-05
0.0212991 0.00159616 1e-05
0.0214377 0.00159328 1e-05
0.0215763 0.00159013 1e-05
0.0217148 0.00158671 1e-05
0.0218535 0.00158302 1e-05
0.0219931 0.00157912 1e-05
0.0221328 0.00157485 1e-05
0.0222724 0.00157026 1e-05
0.022412 0.00156537 1e-05
0.0225517 0.00156021 1e-05
0.0226925 0.00155479 1e-05
0.0228332 0.00154898 1e-05
0.0229739 0.00154281 1e-05
0.0231146 0.00153631 1e-05
0.0232555 0.00152952 1e-05
0.0233973 0.00152242 1e-05
0.0235391 0.00151492 1e-05
0.0236809 0.00150701 1e-05
0.0238227 0.00149875 1e-05
0.0239647 0.00149017 1e-05
0.0241076 0.00148123 1e-05
0.0242505 0.00147187 1e-05
0.0243934 0.00146209 1e-05
0.0245363 0.00145192 1e-05
0.0246794 0.0014414 1e-05
0.0248234 0.00143047 1e-05
0.0249674 0.00141909 1e-05
0.0251114 0.00140728 1e-05
0.0252554 0.00139506 1e-05
0.0253996 0.00138244 1e-05
0.0255448 0.00136936 1e-05
0.0256899 0.00135583 1e-05
0.025835 0.00134186 1e-05
0.0259801 0.00132747 1e-05
0.0261255 0.00131262 1e-05
0.0262344 0.00130119 1e-05
0.0263432 0.0012895 1e-05
0.0264521 0.00127758 1e-05
0.0265609 0.00126541 1e-05
0.0266495 0.00125531 1e-05
0.026691 0.00125049 1e-05
0.0267325 0.00124565 1e-05
0.026774 0.00124076 1e-05
0.0268155 0.00123585 1e-05
0.026857 0.00123089 1e-05
0.0270044 0.00121316 1e-05
0.0271518 0.00119497 1e-05
0.0272991 0.00117634 1e-05
0.0274464 0.00115725 1e-05
0.0275942 0.00113763 1e-05
0.0277428 0.00111747 1e-05
0.0278913 0.00109683 1e-05
0.0280397 0.00107569 1e-05
0.0281881 0.00105411 1e-05
0.0283371 0.00103199 1e-05
0.0284869 0.00100932 1e-05
0.0286365 0.000986152 1e-05
0.0287861 0.000962501 1e-05
0.0289356 0.000938389 1e-05
0.0290858 0.000913704 1e-05
0.0291955 0.000895343 1e-05
0.0293052 0.000876728 1e-05
0.0294148 0.000857871 1e-05
0.0295244 0.000838774 1e-05
0.0296204 0.000821823 1e-05
0.0296644 0.000813971 1e-05
0.0297084 0.000806078 1e-05
0.0297524 0.000798145 1e-05
0.0297963 0.000790172 1e-05
0.0298403 0.000782145 1e-05
0.0299924 0.000754283 1e-05
0.0301444 0.000725941 1e-05
0.0302963 0.000697138 1e-05
0.0304481 0.000667872 1e-05
0.0306007 0.000637988 1e-05
0.030754 0.000607517 1e-05
0.0309071 0.000576569 1e-05
0.0310602 0.000545142 1e-05
0.0312132 0.00051327 1e-05
0.031367 0.000480762 1e-05
0.0314403 0.000465073 1e-05
0.0315135 0.00044928 1e-05
0.0315867 0.00043339 1e-05
0.0316598 0.000417404 1e-05
0.0317285 0.000402304 1e-05
0.0318107 0.000384136 1e-05
0.0318928 0.000365839 1e-05
0.0319749 0.000347412 1e-05
[...]
POINT_DATA 11965
 FIELD attributes 1
U 3 11965 float
9.99908 	0.00341397 	0 9.99869 	0.00869122 	0 9.99897 	0.012539 	0 9.99926 	0.0163768 	0 9.99956 	0.0202046 	0 10.0026 	0.0411168 	0 10.0028 	0.0145823 	0 10.0055 	0.013791 	0 10.0081 	0.0129963 	0 10.0107 	0.0121983 	0 10.0138 	0.0319557 	0 10.0161 	0.00882666 	0 10.0184 	0.00938619 	0 10.0207 	0.00994951 	0 10.023 	0.0105166 	0 10.0229 	0.029637 	0 10.0258 	0.012957 	0 10.0268 	0.0147041 	0 10.0278 	0.0164625 	0 10.0289 	0.0182323 	0 10.026 	0.0343281 	0 10.0299 	0.0223909 	0 10.0303 	0.0241102 	0 10.0308 	0.0258394 	0 10.0312 	0.0275785 	0 10.0265 	0.0396337 	0 10.0311 	0.0314539 	0 10.031 	0.0328743 	0 10.0309 	0.0343016 	0 10.0308 	0.0357358 	0 10.0252 	0.0441346 	0 10.0298 	0.0389574 	0 10.0292 	0.0401231 	0 10.0286 	0.0412934 	0 10.0281 	0.0424685 	0 10.0223 	0.0479678 	0 10.0262 	0.045054 	0 10.0252 	0.0460172 	0 10.0243 	0.0469836 	0 10.0233 	0.0479531 	0 10.0181 	0.0512838 	0 10.0208 	0.0499947 	0 10.0195 	0.0508008 	0 10.0182 	0.0516091 	0 10.0169 	0.0524195 	0 10.0131 	0.054204 	0 10.0139 	0.0540422 	0 10.0123 	0.0547389 	0 10.0107 	0.0554372 	0 10.0091 	0.056137 	0 10.0074 	0.0568781 	0 10.0074 	0.056878 	0 10.0073 	0.056913 	0 10.0072 	0.056948 	0 10.0071 	0.056983 	0 10.007 	0.0570178 	0 10.0052 	0.05761 	0 10.0035 	0.0582031 	0 10.0017 	0.0587972 	0 9.9999 	0.0593921 	0 9.99775 	0.0596741 	0 9.99611 	0.060541 	0 9.99392 	0.0611588 	0 9.99174 	0.0617775 	0 9.98956 	0.062397 	0 9.98648 	0.0624741 	0 9.98524 	0.0635791 	0 9.98273 	0.0642452 	0 9.98023 	0.0649121 	0 9.97773 	0.0655797 	0 9.97367 	0.0655592 	0 9.97296 	0.0669193 	0 9.9701 	0.0677119 	0 9.96725 	0.0685052 	0 9.9644 	0.0692993 	0 9.95918 	0.069325 	0 9.95913 	0.0710097 	0 9.95589 	0.0720496 	0 9.95266 	0.0730904 	0 9.94943 	0.0741321 	0 9.94287 	0.0743743 	0 9.94371 	0.0765139 	0 9.94014 	0.0779791 	0 9.93657 	0.0794453 	0 9.93301 	0.0809127 	0 9.92502 	0.0815767 	0 9.92701 	0.0842414 	0 9.92308 	0.0861787 	0 9.91915 	0.0881173 	0 9.91524 	0.0900572 	0 9.9055 	0.0911492 	0 9.90938 	0.0940762 	0 9.90603 	0.0959524 	0 9.90269 	0.0978301 	0 9.89936 	0.0997091 	0 9.88885 	0.100547 	0 9.89516 	0.103696 	-5.19949e-23 9.89229 	0.105593 	-1.90768e-22 9.88943 	0.107491 	-3.29507e-22 9.88658 	0.10939 	-4.68211e-22 9.8753 	0.110232 	-6.2278e-22 9.88243 	0.114624 	-1.23804e-21 9.87963 	0.117247 	-1.24249e-21 9.87684 	0.119871 	-1.24722e-21 9.87406 	0.122498 	-1.25224e-21 9.86212 	0.12343 	-5.12147e-22 9.87061 	0.128855 	-4.82398e-22 9.86805 	0.131932 	-3.89558e-22 9.86551 	0.135012 	-2.96642e-22 9.86298 	0.138094 	-2.03652e-22 9.85014 	0.138794 	-1.03284e-22 9.86019 	0.145199 	-7.28966e-22 9.85772 	0.148767 	-7.35381e-22 9.85528 	0.152338 	-7.42121e-22 9.85286 	0.155912 	-7.49185e-22 9.83868 	0.156397 	-2.19759e-22 9.85068 	0.16366 	-1.7633e-22 9.84825 	0.167668 	-1.96227e-22 9.84585 	0.17168 	-2.16061e-22 9.84347 	0.175695 	-2.35833e-22 9.82753 	0.175958 	1.54262e-24 9.84215 	0.183811 	-2.27567e-22 9.83975 	0.188049 	-1.76962e-22 9.83739 	0.192291 	-1.26307e-22 9.83506 	0.196537 	-7.56015e-23 9.81677 	0.196497 	2.56977e-22 9.83485 	0.204674 	1.18284e-22 9.83243 	0.208922 	3.76014e-22 9.83004 	0.213174 	6.33717e-22 9.82769 	0.21743 	8.91393e-22 9.80616 	0.217009 	5.91988e-22 9.8288 	0.225339 	2.92705e-21 9.82622 	0.229433 	2.915e-21 9.82368 	0.233529 	2.90398e-21 9.82083 	0.237553 	2.84452e-21 9.79527 	0.236756 	-3.74305e-22 9.82212 	0.244936 	4.98727e-22 9.82096 	0.249012 	3.65241e-22 9.81815 	0.252845 	1.7109e-22 9.81229 	0.256121 	-8.13593e-23 9.78367 	0.255266 	-7.64177e-22 9.81401 	0.263096 	-1.11477e-22 9.81653 	0.267336 	4.49141e-22 9.81335 	0.270838 	9.90586e-22 9.80337 	0.273281 	1.45795e-21 9.77106 	0.272263 	1.68425e-21 9.80532 	0.279788 	2.24599e-21 9.81297 	0.284229 	1.92514e-21 9.80936 	0.287363 	1.2301e-21 9.79388 	0.288896 	4.75741e-22 9.75731 	0.287587 	-3.84108e-22 9.79585 	0.294876 	-1.10744e-21 9.8104 	0.299608 	-1.73514e-21 9.80633 	0.302355 	-2.28868e-21 9.78379 	0.302883 	-2.30835e-21 9.74248 	0.301162 	-1.78691e-21 9.78556 	0.308287 	-1.47612e-21 9.809 	0.313442 	-6.26252e-22 9.80449 	0.315797 	9.89222e-22 9.77313 	0.315205 	1.01286e-21 9.72675 	0.312965 	1.46529e-22 9.7745 	0.319985 	8.52467e-22 9.80896 	0.325727 	1.59767e-21 9.80406 	0.327691 	2.46298e-21 9.76208 	0.325845 	3.51966e-21 9.71046 	0.323009 	4.62649e-21 9.76285 	0.329957 	1.15042e-20 9.81044 	0.336455 	1.77405e-20 9.80523 	0.338039 	1.7018e-20 9.75086 	0.334798 	1.11078e-20 9.69405 	0.33132 	4.94284e-21 9.75085 	0.3382 	2.95717e-21 9.80772 	0.345083 	9.71586e-22 9.80137 	0.346187 	-2.54325e-21 9.73969 	0.342059 	-7.0177e-21 9.67797 	0.337931 	-1.1493e-20 9.73876 	0.344715 	-4.14444e-20 9.79963 	0.351502 	-7.13947e-20 9.79488 	0.35237 	-7.14435e-20 9.7288 	0.347617 	-4.14044e-20 9.66266 	0.342862 	-1.13619e-20 9.72684 	0.349493 	-6.83283e-21 9.79109 	0.356126 	-2.3033e-21 9.78813 	0.35677 	0 9.71835 	0.351447 	0 9.64851 	0.34612 	0 9.7153 	0.352511 	0 9.78216 	0.358904 	0 9.78106 	0.359317 	3.36489e-22 9.70847 	0.353499 	-2.8567e-23 9.6358 	0.347677 	-3.95242e-22 9.70429 	0.353718 	-1.61133e-20 9.77285 	0.359762 	-3.18292e-20 9.77355 	0.359912 	-3.50713e-20 9.69918 	0.35369 	-2.31687e-20 9.62473 	0.347462 	-1.12648e-20 9.69391 	0.353027 	-6.83244e-21 9.76316 	0.358594 	-2.40028e-21 9.76285 	0.358211 	-4.19757e-21 9.69045 	0.351891 	-8.25685e-21 9.61532 	0.345351 	-1.23963e-20 9.68416 	0.3503 	-8.55618e-21 9.74092 	0.354237 	-6.19416e-21 9.74006 	0.353356 	-1.08482e-20 9.68215 	0.347919 	-2.22014e-20 9.60751 	0.341148 	-3.55086e-20 9.67498 	0.345337 	-8.7876e-20 9.71851 	0.347573 	-1.21337e-19 9.71743 	0.346168 	-1.19611e-19 9.67416 	0.341516 	-8.82838e-20 9.60115 	0.334577 	-3.61235e-20 9.66628 	0.337861 	-2.30287e-20 9.69684 	0.338391 	-9.6732e-21 9.6956 	0.336391 	3.9224e-21 9.66637 	0.332332 	1.43114e-20 9.59605 	0.32525 	1.99944e-20 9.65802 	0.327487 	1.46979e-20 9.67651 	0.326335 	9.14375e-21 9.67519 	0.323642 	3.47095e-21 9.65871 	0.319893 	-9.73075e-22 9.59205 	0.312648 	-1.3356e-21 9.65019 	0.313698 	-9.96608e-22 9.6581 	0.310886 	-5.01189e-21 9.6568 	0.307369 	-9.81882e-21 9.65125 	0.303577 	-1.41659e-20 9.58907 	0.296091 	-1.23038e-20 9.64292 	0.295813 	4.33968e-20 9.64218 	0.291334 	4.20221e-20 9.64101 	0.286827 	4.03501e-20 9.63975 	0.282317 	3.87226e-20 9.58717 	0.274724 	-6.21889e-21 9.63006 	0.272446 	3.81096e-20 9.62931 	0.266754 	3.53152e-20 9.62842 	0.261059 	3.25813e-20 9.6274 	0.255359 	2.99079e-20 9.58657 	0.247518 	-1.83398e-20 9.62034 	0.243111 	-1.899e-20 9.62005 	0.236004 	-1.45639e-20 9.61959 	0.228894 	-1.01305e-20 9.61895 	0.221779 	-5.6897e-21 9.58762 	0.213283 	-7.44038e-21 9.61462 	0.206515 	-4.68976e-20 9.61487 	0.197747 	-3.83213e-20 9.61488 	0.188976 	-2.98417e-20 9.61467 	0.180202 	-2.1459e-20 9.59047 	0.170712 	2.53596e-20 9.61309 	0.161219 	2.13592e-20 9.61382 	0.150603 	1.52804e-20 9.61427 	0.139983 	9.19141e-21 9.61443 	0.129359 	3.0923e-21 9.59502 	0.118761 	4.58871e-22 9.616 	0.106229 	-2.92973e-21 9.6166 	0.093764 	-1.03893e-20 9.61688 	0.081295 	-1.78354e-20 9.61682 	0.0688221 	-2.5268e-20 9.599 	0.0573856 	-3.26379e-20 9.62027 	0.0417674 	-2.81492e-20 9.61986 	0.0276111 	-2.73565e-20 9.61909 	0.0134489 	-2.65339e-20 9.61795 	-0.000719301 	-2.56814e-20 9.59872 	-0.0125046 	-2.93221e-20 9.62236 	-0.0311306 	-2.6277e-20 9.62039 	-0.0468458 	-2.93698e-20 9.61805 	-0.0625696 	-3.24227e-20 9.61532 	-0.0783019 	-3.54356e-20 9.59205 	-0.0900186 	-3.80978e-20 9.62022 	-0.111635 	-9.12056e-20 9.61644 	-0.128878 	-8.6461e-20 9.61228 	-0.146132 	-8.18821e-20 9.60774 	-0.163395 	-7.74694e-20 9.57858 	-0.174831 	-1.22579e-20 9.61271 	-0.199412 	-1.0198e-20 9.60717 	-0.218226 	-6.72001e-21 9.60127 	-0.237051 	-3.23259e-21 9.59297 	-0.255355 	-4.38587e-22 9.55962 	-0.267147 	-6.25984e-21 9.59201 	-0.293442 	-1.04069e-21 9.59279 	-0.315067 	1.20164e-21 9.58542 	-0.335537 	2.69874e-21 9.56933 	-0.353657 	6.82898e-21 9.53756 	-0.367468 	1.57992e-20 9.56367 	-0.394797 	6.39677e-20 9.57441 	-0.419831 	9.04036e-20 9.56593 	-0.441976 	8.94155e-20 9.54338 	-0.459999 	5.82528e-20 9.51449 	-0.476231 	1.3876e-20 9.53386 	-0.504508 	6.92471e-22 9.55273 	-0.53277 	-1.24093e-20 9.54235 	-0.556082 	-1.45017e-20 9.51695 	-0.574769 	-1.43804e-20 9.49119 	-0.593474 	-1.42321e-20 9.50417 	-0.622607 	-5.52849e-20 9.51669 	-0.651726 	-9.62917e-20 9.51294 	-0.676816 	-9.84566e-20 9.49005 	-0.697703 	-5.8897e-20 9.4668 	-0.718622 	-1.92861e-20 9.47399 	-0.748415 	-1.29557e-20 9.47945 	-0.777706 	-6.03434e-21 9.47628 	-0.803953 	4.67878e-21 9.46098 	-0.827798 	1.25032e-20 9.43921 	-0.850451 	1.88525e-20 9.44116 	-0.880583 	5.37697e-20 9.43692 	-0.908416 	5.2491e-20 9.4305 	-0.935518 	3.98205e-20 9.42372 	-0.9626 	2.69906e-20 9.40577 	-0.98719 	-9.08513e-21 9.40236 	-1.00903 	-4.78445e-20 9.39537 	-1.02943 	-4.28069e-20 9.3882 	-1.04983 	-3.75989e-20 9.38086 	-1.07022 	-3.22203e-20 9.37473 	-1.08681 	-2.77015e-20 9.37174 	-1.0946 	-2.74321e-20 9.36873 	-1.10239 	-2.71508e-20 9.36569 	-1.11018 	-2.68577e-20 9.36262 	-1.11796 	-2.65526e-20 9.35869 	-1.12511 	-3.11306e-20 9.34954 	-1.15383 	-2.59005e-20 9.3365 	-1.18118 	-1.97426e-20 9.32318 	-1.20852 	-1.35367e-20 9.30912 	-1.23555 	-9.28682e-21 9.29154 	-1.26049 	-1.89262e-20 9.28348 	-1.29064 	-6.8024e-20 9.27362 	-1.32015 	-1.10385e-19 9.25669 	-1.3467 	-1.17781e-19 9.23625 	-1.37105 	-6.66669e-20 9.21546 	-1.39551 	-1.53458e-20 9.20257 	-1.42428 	-9.29941e-21 9.18905 	-1.45281 	-3.49732e-21 9.17228 	-1.47921 	2.65225e-22 9.15244 	-1.50426 	4.77984e-21 9.12868 	-1.52773 	1.02754e-20 9.11607 	-1.5474 	1.66518e-20 9.10139 	-1.56553 	1.1393e-20 9.08635 	-1.58346 	4.64722e-21 9.07117 	-1.60139 	-2.14598e-21 9.05775 	-1.61711 	-8.14211e-21 9.05165 	-1.62459 	-1.08213e-20 9.04552 	-1.63206 	-1.35081e-20 9.03938 	-1.63954 	-1.62023e-20 9.03303 	-1.64685 	-1.7372e-20 9.02603 	-1.65363 	-1.35898e-20 9.00546 	-1.6793 	-2.49376e-21 8.98149 	-1.70303 	1.7507e-21 8.95731 	-1.7268 	6.07604e-21 8.93136 	-1.74896 	8.37748e-22 8.90412 	-1.77032 	-1.00985e-20 8.8805 	-1.79434 	-1.3001e-20 8.85663 	-1.81838 	-1.58809e-20 8.83057 	-1.83989 	-1.31099e-20 8.80259 	-1.86015 	-8.91088e-21 8.77257 	-1.87939 	-3.48238e-21 8.75965 	-1.88958 	-7.82625e-22 8.74622 	-1.899 	2.84005e-22 8.73244 	-1.90791 	2.6069e-22 8.71862 	-1.91683 	2.37476e-22 8.70559 	-1.9252 	2.15773e-22 8.69009 	-1.93608 	1.54084e-22 8.67452 	-1.94698 	9.22807e-23 8.6589 	-1.95789 	3.03618e-23 8.64198 	-1.96806 	0 8.62376 	-1.97755 	0 8.59542 	-1.99715 	0 8.56686 	-2.01677 	0 8.53403 	-2.03399 	0 8.49822 	-2.04937 	0 8.46199 	-2.0649 	0 8.44119 	-2.07601 	0 8.41947 	-2.08649 	-2.7274e-23 8.39643 	-2.09603 	-9.55121e-23 8.3733 	-2.10559 	-1.63883e-22 8.35172 	-2.11448 	-2.27562e-22 8.34066 	-2.11987 	-2.41458e-22 8.32958 	-2.12526 	-2.55312e-22 8.31848 	-2.13066 	-2.69122e-22 8.30642 	-2.13564 	-7.55511e-22 8.29335 	-2.14021 	-1.73334e-21 8.26326 	-2.15436 	-7.00111e-21 8.23073 	-2.16756 	-1.07956e-20 8.19692 	-2.1803 	-1.37392e-20 8.15832 	-2.19098 	-9.93355e-21 8.11932 	-2.20176 	-6.1093e-21 8.09003 	-2.21198 	-4.37061e-21 8.05894 	-2.22147 	-4.00739e-21 8.02562 	-2.23002 	-5.3843e-21 7.99218 	-2.2386 	-6.77117e-21 7.96112 	-2.24655 	-8.06332e-21 7.9573 	-2.2477 	-8.53561e-21 7.95347 	-2.24886 	-9.00834e-21 7.94964 	-2.25001 	-9.4815e-21 7.94555 	-2.25102 	-8.73919e-21 7.94122 	-2.25191 	-6.94197e-21 7.90617 	-2.26041 	-5.77058e-21 7.86986 	-2.26846 	-4.1287e-21 7.83342 	-2.27655 	-2.47703e-21 7.79402 	-2.28312 	8.27813e-22 7.75309 	-2.28914 	4.82356e-21 7.71811 	-2.29569 	-5.33224e-21 7.68196 	-2.30172 	-1.03876e-20 7.64326 	-2.30646 	-3.51372e-21 7.60442 	-2.31123 	3.4109e-21 7.56468 	-2.31585 	1.19529e-20 7.56266 	-2.31609 	1.15683e-20 7.56056 	-2.3163 	1.14685e-20 7.55836 	-2.31645 	1.18509e-20 7.55616 	-2.31661 	1.22334e-20 7.55396 	-2.31676 	1.26147e-20 7.51829 	-2.31999 	2.29483e-20 7.48251 	-2.32325 	3.33413e-20 7.44664 	-2.32655 	4.37945e-20 7.40858 	-2.32882 	3.52516e-20 7.36862 	-2.33032 	1.21371e-20 7.33242 	-2.33238 	-9.61194e-22 7.29585 	-2.33435 	-1.26409e-20 7.25599 	-2.3348 	-6.84722e-21 7.216 	-2.33528 	-1.02155e-21 7.17402 	-2.33532 	9.91691e-21 7.16709 	-2.33536 	1.09207e-20 7.15994 	-2.3353 	1.14214e-20 7.15242 	-2.33507 	1.10624e-20 7.14489 	-2.33485 	1.07032e-20 7.13743 	-2.33463 	1.0347e-20 7.10602 	-2.33406 	8.58539e-21 7.07455 	-2.33352 	6.81838e-21 7.04301 	-2.33299 	5.04585e-21 7.00963 	-2.33168 	4.70975e-21 6.97471 	-2.32979 	5.45471e-21 6.93804 	-2.32791 	1.57963e-20 6.90128 	-2.32606 	2.61294e-20 6.86144 	-2.32298 	2.2231e-20 6.82014 	-2.31957 	1.30822e-20 6.77758 	-2.316 	5.48967e-22 6.76572 	-2.31494 	1.30955e-22 6.75346 	-2.31373 	-1.26276e-22 6.74055 	-2.31228 	-1.20811e-22 6.72764 	-2.31083 	-1.15354e-22 6.71487 	-2.3094 	-1.09969e-22 6.68851 	-2.30654 	-7.80161e-23 6.6621 	-2.30369 	-4.60443e-23 6.63565 	-2.30084 	-1.40539e-23 6.60773 	-2.29744 	-1.59409e-21 6.57856 	-2.29359 	-4.44579e-21 6.5421 	-2.28844 	-2.89151e-21 6.50556 	-2.28331 	-1.34233e-21 6.4665 	-2.27737 	0 6.42442 	-2.27083 	0 6.38211 	-2.26429 	0 6.36456 	-2.26131 	0 6.34638 	-2.25814 	2.0516e-22 6.32724 	-2.25465 	7.16445e-22 6.30809 	-2.25118 	1.22789e-21 6.28918 	-2.24775 	1.73267e-21 6.2693 	-2.24408 	1.93794e-21 6.24941 	-2.24041 	2.14291e-21 6.2295 	-2.23674 	2.34758e-21 6.20853 	-2.23271 	2.83731e-21 6.18661 	-2.22835 	3.57203e-21 6.15094 	-2.22062 	1.352e-20 6.11521 	-2.2129 	2.34653e-20 6.0764 	-2.20472 	2.34869e-20 6.03507 	-2.19579 	1.35431e-20 5.99356 	-2.18685 	3.57465e-21 5.96907 	-2.18105 	2.56679e-21 5.94357 	-2.17496 	1.89067e-21 5.91677 	-2.1685 	1.6506e-21 5.88994 	-2.16205 	1.41096e-21 5.86344 	-2.15568 	1.17504e-21 5.85199 	-2.15282 	8.94221e-22 5.84052 	-2.14997 	6.13383e-22 5.82906 	-2.14711 	3.32521e-22 5.81702 	-2.14406 	4.72269e-22 5.80442 	-2.14083 	1.01983e-21 5.77002 	-2.13119 	5.52501e-21 5.73381 	-2.12149 	8.81165e-21 5.6972 	-2.11179 	1.18533e-20 5.6572 	-2.10105 	9.403e-21 5.617 	-2.09027 	6.81882e-21 5.58395 	-2.08057 	4.19338e-21 5.54938 	-2.07046 	5.2275e-21 5.51312 	-2.05988 	1.03783e-20 5.47682 	-2.04931 	1.55319e-20 5.44093 	-2.03887 	2.06251e-20 5.44006 	-2.0386 	2.06365e-20 5.43918 	-2.03834 	2.06479e-20 5.43831 	-2.03807 	2.06593e-20 5.4374 	-2.03779 	2.0668e-20 5.43644 	-2.0375 	2.06736e-20 5.40164 	-2.02647 	2.51998e-20 5.36662 	-2.01543 	2.899e-20 5.33157 	-2.00439 	3.27839e-20 5.29482 	-1.99282 	2.49232e-20 5.25638 	-1.98072 	5.9045e-21 5.22429 	-1.9698 	-2.08474e-20 5.19218 	-1.95888 	-4.75991e-20 5.15697 	-1.94704 	-4.0363e-20 5.12114 	-1.93519 	-2.9809e-20 5.08374 	-1.92327 	-1.11103e-20 5.0729 	-1.91953 	-2.02116e-20 5.06153 	-1.91565 	-2.23226e-20 5.04965 	-1.91163 	-1.75704e-20 5.03778 	-1.90762 	-1.28173e-20 5.02592 	-1.90361 	-8.0729e-21 5.00419 	-1.89584 	2.34854e-21 4.98247 	-1.88807 	1.27718e-20 4.96073 	-1.88031 	2.3197e-20 4.9368 	-1.87229 	2.09487e-20 4.90992 	-1.86393 	1.84646e-21 4.88174 	-1.85241 	1.08147e-21 4.85356 	-1.84089 	3.16366e-22 4.81923 	-1.82899 	0 4.77931 	-1.81656 	0 4.73935 	-1.80413 	0 4.7166 	-1.79489 	0 4.69054 	-1.7853 	-2.65532e-21 4.66179 	-1.77545 	-7.44626e-21 4.63302 	-1.7656 	-1.22377e-20 4.60427 	-1.75575 	-1.70248e-20 4.59905 	-1.75359 	-1.75362e-20 4.59383 	-1.75142 	-1.80476e-20 4.58862 	-1.74925 	-1.85591e-20 4.58334 	-1.74703 	-1.90358e-20 4.57779 	-1.74457 	-1.93489e-20 4.55011 	-1.73302 	-6.38604e-20 4.52156 	-1.72123 	-8.36801e-20 4.49301 	-1.70944 	-1.03487e-19 4.46377 	-1.69708 	-7.69554e-20 4.43346 	-1.68382 	2.16053e-20 4.40774 	-1.67297 	1.31745e-20 4.38204 	-1.66212 	4.7419e-21 4.35458 	-1.6503 	6.214e-21 4.32504 	-1.63755 	1.84861e-20 4.29554 	-1.62482 	3.07483e-20 4.2704 	-1.61434 	7.2797e-20 4.24397 	-1.6029 	6.60284e-20 4.21716 	-1.59117 	4.41822e-20 4.19037 	-1.57944 	2.2349e-20 4.16347 	-1.56768 	-2.79627e-21 4.16254 	-1.56729 	-2.34175e-21 4.16156 	-1.56688 	-2.58099e-21 4.16057 	-1.56645 	-2.98976e-21 4.15958 	-1.56603 	-3.39853e-21 4.15859 	-1.5656 	-3.80739e-21 4.13329 	-1.5546 	-8.81538e-21 4.10801 	-1.5436 	-1.38266e-20 4.08276 	-1.5326 	-1.88412e-20 4.05761 	-1.52143 	-2.17999e-20 4.03284 	-1.50955 	-1.63134e-20 4.00799 	-1.49899 	-7.9384e-20 3.98317 	-1.48843 	-1.42466e-19 3.95784 	-1.47725 	-1.40827e-19 3.93263 	-1.46543 	-7.78819e-20 3.9075 	-1.45362 	-1.50055e-20 3.88315 	-1.44349 	-4.02468e-21 3.85905 	-1.43292 	1.45428e-20 3.83518 	-1.422 	3.94138e-20 3.81135 	-1.41108 	6.42798e-20 3.7872 	-1.39998 	9.54719e-20 3.78217 	-1.39793 	1.19669e-19 3.77721 	-1.39576 	1.22991e-19 3.77227 	-1.39356 	1.20942e-19 3.76734 	-1.39135 	1.18894e-19 3.76239 	-1.38915 	1.16844e-19 3.74391 	-1.38078 	1.18112e-19 3.72545 	-1.37241 	1.19397e-19 3.70701 	-1.36404 	1.20699e-19 3.68871 	-1.35555 	1.23729e-19 3.67091 	-1.34661 	1.33476e-19 3.64855 	-1.33688 	8.92524e-20 3.62611 	-1.32708 	4.6101e-20 3.6033 	-1.31682 	1.85067e-20 3.58112 	-1.30598 	4.81277e-20 3.55903 	-1.29515 	7.77155e-20 3.53708 	-1.28583 	4.29887e-20 3.51541 	-1.27629 	2.38239e-20 3.49421 	-1.26632 	3.26667e-20 3.47306 	-1.25635 	4.14964e-20 3.45151 	-1.24605 	4.4069e-20 3.44368 	-1.24281 	1.74357e-20 3.43606 	-1.2394 	1.35644e-20 3.42849 	-1.23593 	1.56746e-20 3.42093 	-1.23247 	1.77781e-20 3.41333 	-1.22899 	1.9884e-20 3.40011 	-1.22284 	2.44696e-20 3.38691 	-1.21669 	2.90317e-20 3.37372 	-1.21054 	3.35702e-20 3.36067 	-1.20431 	2.27317e-20 3.34811 	-1.19778 	-4.75231e-20 3.32809 	-1.18894 	-3.28646e-20 3.30788 	-1.17989 	-2.26202e-20 3.2875 	-1.17064 	-1.64806e-20 3.26804 	-1.16082 	-4.97642e-21 3.2487 	-1.151 	6.63421e-21 3.22904 	-1.14254 	-9.51709e-20 3.20957 	-1.13399 	-1.80957e-19 3.19087 	-1.12497 	-1.9268e-19 3.17215 	-1.11587 	-1.90228e-19 3.15318 	-1.10647 	-1.28115e-19 3.14329 	-1.10232 	-2.24673e-19 3.13377 	-1.09795 	-2.22914e-19 3.12436 	-1.09352 	-1.95449e-19 3.11496 	-1.0891 	-1.68012e-19 3.1055 	-1.08464 	-1.40387e-19 3.0966 	-1.08038 	-1.32346e-19 3.08771 	-1.07613 	-1.24312e-19 3.07884 	-1.07187 	-1.16288e-19 3.07008 	-1.06756 	-1.09642e-19 3.06177 	-1.06306 	-1.08408e-19 3.04402 	-1.05508 	-8.16244e-20 3.02607 	-1.04675 	-4.51238e-20 3.00812 	-1.03837 	-7.1872e-21 2.99107 	-1.02957 	1.77893e-20 2.97434 	-1.02069 	3.92621e-20 2.95694 	-1.01305 	1.55625e-19 2.93958 	-1.00541 	2.72e-19 2.92331 	-0.99727 	2.42931e-19 2.90696 	-0.988895 	1.58e-19 2.89058 	-0.98036 	3.01422e-20 2.87906 	-0.975409 	4.99087e-20 2.86813 	-0.970188 	5.96111e-20 2.85736 	-0.964899 	6.67675e-20 2.84662 	-0.959613 	7.3913e-20 2.83577 	-0.954259 	8.11418e-20 2.83068 	-0.951712 	7.79989e-20 2.8256 	-0.949165 	7.48586e-20 2.82052 	-0.946618 	7.1721e-20 2.81553 	-0.944041 	6.84204e-20 2.81087 	-0.941339 	6.44357e-20 2.79539 	-0.93404 	-6.60025e-20 2.77984 	-0.926437 	-1.34027e-19 2.76434 	-0.918838 	-2.01937e-19 2.7496 	-0.91096 	-1.90469e-19 2.73549 	-0.902903 	-1.21916e-19 2.72042 	-0.895998 	-2.27748e-19 2.7054 	-0.889097 	-3.33566e-19 2.69136 	-0.881827 	-3.30471e-19 2.6775 	-0.874044 	-2.46247e-19 2.66375 	-0.86628 	-1.61425e-19 2.65084 	-0.860451 	-2.4981e-19 2.63882 	-0.854284 	-2.12859e-19 2.62705 	-0.848041 	-1.46926e-19 2.61534 	-0.841804 	-8.10688e-20 2.6034 	-0.83543 	-1.37837e-20 2.60186 	-0.83459 	-2.16461e-21 2.60031 	-0.83375 	9.4519e-21 2.59877 	-0.832911 	2.10659e-20 2.59725 	-0.832061 	2.78939e-20 2.59586 	-0.831167 	1.22662e-20 2.58281 	-0.82436 	9.71296e-20 2.56979 	-0.817451 	1.59872e-19 2.55685 	-0.810548 	2.22485e-19 2.54439 	-0.803506 	2.26429e-19 2.53295 	-0.796178 	1.04779e-19 2.52036 	-0.789923 	2.29447e-19 2.50782 	-0.783674 	3.54149e-19 2.49595 	-0.776991 	3.3961e-19 2.48478 	-0.769886 	1.85531e-19 2.47374 	-0.762811 	3.1873e-20 2.46156 	-0.756786 	1.74476e-19 2.45028 	-0.750472 	2.09847e-19 2.43953 	-0.744007 	1.87694e-19 2.42886 	-0.737551 	1.65733e-19 2.41827 	-0.730978 	9.58185e-20 2.41629 	-0.730002 	9.74104e-20 2.4145 	-0.728961 	9.97649e-20 2.41274 	-0.727909 	1.02257e-19 2.41098 	-0.726857 	1.04748e-19 2.40922 	-0.725799 	1.07252e-19 2.4006 	-0.720573 	1.42538e-19 2.39205 	-0.715353 	1.77706e-19 2.38355 	-0.71014 	2.12755e-19 2.37527 	-0.704881 	2.21882e-19 2.36804 	-0.699341 	8.31166e-20 2.35808 	-0.693669 	5.49705e-20 