# vtk DataFile Version 2.0
track0
ASCII
DATASET POLYDATA
POINTS 11965 float
-0.0205 0.001 1e-05
-0.0202034 0.0010001 1e-05
-0.0199069 0.00100036 1e-05
-0.0196103 0.00100073 1e-05
-0.0193137 0.00100122 1e-05
-0.0190172 0.00100182 1e-05
-0.0187132 0.00100307 1e-05
-0.0184093 0.00100351 1e-05
-0.0181054 0.00100393 1e-05
-0.0178015 0.00100432 1e-05
-0.0174976 0.00100469 1e-05
-0.0172058 0.00100562 1e-05
-0.016914 0.00100588 1e-05
-0.0166222 0.00100615 1e-05
-0.0163305 0.00100644 1e-05
-0.0160387 0.00100675 1e-05
-0.0157586 0.00100758 1e-05
-0.0154784 0.00100794 1e-05
-0.0151983 0.00100835 1e-05
-0.0149182 0.00100881 1e-05
-0.0146381 0.00100932 1e-05
-0.0143692 0.00101024 1e-05
-0.0141002 0.00101084 1e-05
-0.0138313 0.00101149 1e-05
-0.0135624 0.00101218 1e-05
-0.0132934 0.00101292 1e-05
-0.0130353 0.00101394 1e-05
-0.0127771 0.00101475 1e-05
-0.0125189 0.0010156 1e-05
-0.0122607 0.00101648 1e-05
-0.0120025 0.0010174 1e-05
-0.0117547 0.00101849 1e-05
-0.0115068 0.00101945 1e-05
-0.0112589 0.00102044 1e-05
-0.0110111 0.00102146 1e-05
-0.0107632 0.00102251 1e-05
-0.0105252 0.00102365 1e-05
-0.0102873 0.00102472 1e-05
-0.0100493 0.00102581 1e-05
-0.00981133 0.00102693 1e-05
-0.00957337 0.00102807 1e-05
-0.00934491 0.00102924 1e-05
-0.00911645 0.00103038 1e-05
-0.00888799 0.00103154 1e-05
-0.00865954 0.00103271 1e-05
-0.00843108 0.00103391 1e-05
-0.00821175 0.0010351 1e-05
-0.00799242 0.00103628 1e-05
-0.00777309 0.00103748 1e-05
-0.00755376 0.00103869 1e-05
-0.00733443 0.00103992 1e-05
-0.00732283 0.00103999 1e-05
-0.00731124 0.00104006 1e-05
-0.00729964 0.00104012 1e-05
-0.00728804 0.00104019 1e-05
-0.00727649 0.00104025 1e-05
-0.00707751 0.00104139 1e-05
-0.00687853 0.00104253 1e-05
-0.00667956 0.00104369 1e-05
-0.00648058 0.00104486 1e-05
-0.0062816 0.00104604 1e-05
-0.00607944 0.00104725 1e-05
-0.00587729 0.00104847 1e-05
-0.00567514 0.00104971 1e-05
-0.00547298 0.00105096 1e-05
-0.00527083 0.00105222 1e-05
-0.00507675 0.00105344 1e-05
-0.00488267 0.00105467 1e-05
-0.0046886 0.00105592 1e-05
-0.00449452 0.00105718 1e-05
-0.00430044 0.00105846 1e-05
-0.00411412 0.00105968 1e-05
-0.0039278 0.00106093 1e-05
-0.00374147 0.0010622 1e-05
-0.00355515 0.00106348 1e-05
-0.00336883 0.00106478 1e-05
-0.00318995 0.00106602 1e-05
-0.00301107 0.0010673 1e-05
-0.00283219 0.00106859 1e-05
-0.00265331 0.0010699 1e-05
-0.00247443 0.00107124 1e-05
-0.0023027 0.00107252 1e-05
-0.00213097 0.00107384 1e-05
-0.00195924 0.00107519 1e-05
-0.00178751 0.00107656 1e-05
-0.00161577 0.00107796 1e-05
-0.0014509 0.00107932 1e-05
-0.00128603 0.00108072 1e-05
-0.00112116 0.00108215 1e-05
-0.000956291 0.00108361 1e-05
-0.000791418 0.00108511 1e-05
-0.000633135 0.00108657 1e-05
-0.000474852 0.00108807 1e-05
-0.000316569 0.0010896 1e-05
-0.000158286 0.00109117 1e-05
1.35525e-20 0.00109276 1e-05
0.000105677 0.00109384 1e-05
0.000211355 0.00109494 1e-05
0.000317031 0.00109607 1e-05
0.000422708 0.00109722 1e-05
0.000528387 0.00109839 1e-05
0.000634886 0.00109958 1e-05
0.000741385 0.00110081 1e-05
0.000847883 0.00110208 1e-05
0.000954381 0.00110337 1e-05
0.00106088 0.00110469 1e-05
0.00116821 0.00110603 1e-05
0.00127554 0.00110744 1e-05
0.00138286 0.00110887 1e-05
0.00149019 0.00111034 1e-05
0.00159752 0.00111184 1e-05
0.00170568 0.00111337 1e-05
0.00181384 0.00111496 1e-05
0.001922 0.00111659 1e-05
0.00203016 0.00111826 1e-05
0.00213833 0.00111997 1e-05
0.00224733 0.00112171 1e-05
0.00235633 0.00112352 1e-05
0.00246533 0.00112537 1e-05
0.00257433 0.00112727 1e-05
0.00268334 0.00112922 1e-05
0.00279319 0.00113119 1e-05
0.00290304 0.00113324 1e-05
0.00301288 0.00113534 1e-05
0.00312273 0.00113748 1e-05
0.00323259 0.00113968 1e-05
0.00334329 0.0011419 1e-05
0.00345399 0.0011442 1e-05
0.00356469 0.00114655 1e-05
0.00367539 0.00114895 1e-05
0.00378611 0.0011514 1e-05
0.00389767 0.00115387 1e-05
0.00400923 0.00115643 1e-05
0.0041208 0.00115903 1e-05
0.00423236 0.00116169 1e-05
0.00434393 0.00116438 1e-05
0.00445636 0.0011671 1e-05
0.00456879 0.00116991 1e-05
0.00468122 0.00117276 1e-05
0.00479365 0.00117565 1e-05
0.00490609 0.00117859 1e-05
0.0050194 0.00118154 1e-05
0.0051327 0.00118458 1e-05
0.005246 0.00118767 1e-05
0.0053593 0.00119079 1e-05
0.00547262 0.00119395 1e-05
0.00558681 0.00119713 1e-05
0.00570099 0.00120039 1e-05
0.00581518 0.0012037 1e-05
0.00592936 0.00120704 1e-05
0.00604356 0.00121041 1e-05
0.00615863 0.0012138 1e-05
0.0062737 0.00121727 1e-05
0.00638878 0.00122078 1e-05
0.00650385 0.00122433 1e-05
0.00661893 0.00122789 1e-05
0.0067349 0.00123148 1e-05
0.00685087 0.00123513 1e-05
0.00696683 0.00123884 1e-05
0.0070828 0.00124257 1e-05
0.00719878 0.00124631 1e-05
0.00731565 0.00125007 1e-05
0.00743252 0.0012539 1e-05
0.00754939 0.00125778 1e-05
0.00766625 0.00126169 1e-05
0.00778313 0.00126559 1e-05
0.00790091 0.00126951 1e-05
0.00801869 0.00127349 1e-05
0.00813647 0.00127753 1e-05
0.00825424 0.00128159 1e-05
0.00837203 0.00128563 1e-05
0.00849073 0.00128969 1e-05
0.00860942 0.0012938 1e-05
0.00872811 0.00129798 1e-05
0.0088468 0.00130217 1e-05
0.00896551 0.00130634 1e-05
0.00908513 0.00131052 1e-05
0.00920475 0.00131475 1e-05
0.00932436 0.00131904 1e-05
0.00944397 0.00132334 1e-05
0.0095636 0.00132762 1e-05
0.00968415 0.0013319 1e-05
0.0098047 0.00133623 1e-05
0.00992524 0.00134061 1e-05
0.0100458 0.00134501 1e-05
0.0101663 0.00134937 1e-05
0.0102878 0.00135372 1e-05
0.0104093 0.00135813 1e-05
0.0105308 0.00136259 1e-05
0.0106523 0.00136705 1e-05
0.0107738 0.00137148 1e-05
0.0108962 0.00137589 1e-05
0.0110186 0.00138036 1e-05
0.0111411 0.00138486 1e-05
0.0112635 0.00138937 1e-05
0.0113859 0.00139384 1e-05
0.0115093 0.00139829 1e-05
0.0116327 0.00140278 1e-05
0.0117561 0.00140731 1e-05
0.0118794 0.00141184 1e-05
0.0120028 0.00141632 1e-05
0.0121272 0.00142079 1e-05
0.0122515 0.00142529 1e-05
0.0123759 0.00142981 1e-05
0.0125002 0.00143432 1e-05
0.0126245 0.00143879 1e-05
0.0127498 0.00144324 1e-05
0.0128752 0.00144771 1e-05
0.0130005 0.00145219 1e-05
0.0131258 0.00145665 1e-05
0.0132511 0.00146108 1e-05
0.0133774 0.00146548 1e-05
0.0135036 0.00146989 1e-05
0.0136299 0.0014743 1e-05
0.0137562 0.00147868 1e-05
0.0138825 0.00148302 1e-05
0.0140098 0.00148734 1e-05
0.014137 0.00149165 1e-05
0.0142643 0.00149594 1e-05
0.0143915 0.0015002 1e-05
0.0145188 0.00150442 1e-05
0.0146471 0.0015086 1e-05
0.0147753 0.00151276 1e-05
0.0149036 0.00151689 1e-05
0.0150318 0.00152098 1e-05
0.0151601 0.00152501 1e-05
0.0152893 0.001529 1e-05
0.0154186 0.00153297 1e-05
0.0155478 0.00153687 1e-05
0.0156771 0.00154072 1e-05
0.0158063 0.0015445 1e-05
0.0159366 0.00154823 1e-05
0.0160668 0.00155192 1e-05
0.0161971 0.00155553 1e-05
0.0163274 0.00155906 1e-05
0.0164576 0.00156251 1e-05
0.0165889 0.0015659 1e-05
0.0167201 0.00156922 1e-05
0.0168514 0.00157244 1e-05
0.0169827 0.00157556 1e-05
0.0171139 0.00157859 1e-05
0.0172462 0.00158153 1e-05
0.0173785 0.00158438 1e-05
0.0175108 0.0015871 1e-05
0.0176431 0.0015897 1e-05
0.0177754 0.00159218 1e-05
0.0179087 0.00159455 1e-05
0.018042 0.00159678 1e-05
0.0181753 0.00159887 1e-05
0.0183087 0.00160081 1e-05
0.018442 0.00160261 1e-05
0.0185763 0.00160427 1e-05
0.0187107 0.00160575 1e-05
0.018845 0.00160706 1e-05
0.0189794 0.0016082 1e-05
0.0191137 0.00160916 1e-05
0.0192491 0.00160997 1e-05
0.0193845 0.00161056 1e-05
0.0195199 0.00161095 1e-05
0.0196553 0.00161114 1e-05
0.0197907 0.00161113 1e-05
0.0199272 0.00161095 1e-05
0.0200636 0.00161051 1e-05
0.0202001 0.00160984 1e-05
0.0203365 0.00160896 1e-05
0.020473 0.00160784 1e-05
0.0206105 0.00160655 1e-05
0.020748 0.00160496 1e-05
0.0208855 0.00160312 1e-05
0.021023 0.00160103 1e-05
0.0211606 0.00159869 1e-05
0.0212991 0.00159616 1e-05
0.0214377 0.00159328 1e-05
0.0215763 0.00159013 1e-05
0.0217148 0.00158671 1e-05
0.0218535 0.00158302 1e-05
0.0219931 0.00157912 1e-05
0.0221328 0.00157485 1e-05
0.0222724 0.00157026 1e-05
0.022412 0.00156537 1e-05
0.0225517 0.00156021 1e-05
0.0226925 0.00155479 1e-05
0.0228332 0.00154898 1e-05
0.0229739 0.00154281 1e-05
0.0231146 0.00153631 1e-05
0.0232555 0.00152952 1e-05
0.0233973 0.00152242 1e-05
0.0235391 0.00151492 1e-05
0.0236809 0.00150701 1e-05
0.0238227 0.00149875 1e-05
0.0239647 0.00149017 1e-05
0.0241076 0.00148123 1e-05
0.0242505 0.00147187 1e-05
0.0243934 0.00146209 1e-05
0.0245363 0.00145192 1e-05
0.0246794 0.0014414 1e-05
0.0248234 0.00143047 1e-05
0.0249674 0.00141909 1e-05
0.0251114 0.00140728 1e-05
0.0252554 0.00139506 1e-05
0.0253996 0.00138244 1e-05
0.0255448 0.00136936 1e-05
0.0256899 0.00135583 1e-05
0.025835 0.00134186 1e-05
0.0259801 0.00132747 1e-05
0.0261255 0.00131262 1e-05
0.0262344 0.00130119 1e-05
0.0263432 0.0012895 1e-05
0.0264521 0.00127758 1e-05
0.0265609 0.00126541 1e-05
0.0266495 0.00125531 1e-05
0.026691 0.00125049 1e-05
0.0267325 0.00124565 1e-05
0.026774 0.00124076 1e-05
0.0268155 0.00123585 1e-05
0.026857 0.00123089 1e-05
0.0270044 0.00121316 1e-05
0.0271518 0.00119497 1e-05
0.0272991 0.00117634 1e-05
0.0274464 0.00115725 1e-05
0.0275942 0.00113763 1e-05
0.0277428 0.00111747 1e-05
0.0278913 0.00109683 1e-05
0.0280397 0.00107569 1e-05
0.0281881 0.00105411 1e-05
0.0283371 0.00103199 1e-05
0.0284869 0.00100932 1e-05
0.0286365 0.000986152 1e-05
0.0287861 0.000962501 1e-05
0.0289356 0.000938389 1e-05
0.0290858 0.000913704 1e-05
0.0291955 0.000895343 1e-05
0.0293052 0.000876728 1e-05
0.0294148 0.000857871 1e-05
0.0295244 0.000838774 1e-05
0.0296204 0.000821823 1e-05
0.0296644 0.000813971 1e-05
0.0297084 0.000806078 1e-05
0.0297524 0.000798145 1e-05
0.0297963 0.000790172 1e-05
0.0298403 0.000782145 1e-05
0.0299924 0.000754283 1e-05
0.0301444 0.000725941 1e-05
0.0302963 0.000697138 1e-05
0.0304481 0.000667872 1e-05
0.0306007 0.000637988 1e-05
0.030754 0.000607517 1e-05
0.0309071 0.000576569 1e-05
0.0310602 0.000545142 1e-05
0.0312132 0.00051327 1e-05
0.031367 0.000480762 1e-05
0.0314403 0.000465073 1e-05
0.0315135 0.00044928 1e-05
0.0315867 0.00043339 1e-05
0.0316598 0.000417404 1e-05
0.0317285 0.000402304 1e-05
0.0318107 0.000384136 1e-05
0.0318928 0.000365839 1e-05
0.0319749 0.000347412 1e-05
[...]
POINT_DATA 11965
 FIELD attributes 2
p 1 11965 float
0.150803 0.15873 0.167098 0.175505 0.183949 0.183982 0.21201 0.197163 0.182329 0.16751 0.107988 0.103751 0.0671514 0.030548 -0.00605911 -0.0650344 -0.0615803 -0.0854756 -0.10939 -0.133323 -0.176238 -0.176486 -0.195812 -0.215157 -0.23452 -0.268045 -0.272757 -0.289485 -0.306225 -0.322977 -0.348579 -0.354344 -0.367506 -0.380675 -0.393852 -0.412206 -0.417735 -0.427601 -0.437473 -0.44735 -0.45997 -0.464868 -0.472023 -0.479182 -0.486344 -0.494607 -0.498424 -0.50313 -0.507838 -0.512548 -0.517304 -0.517395 -0.51752 -0.517645 -0.517771 -0.517896 -0.520067 -0.522241 -0.524416 -0.526592 -0.528223 -0.528446 -0.528216 -0.527987 -0.527759 -0.526581 -0.524445 -0.521473 -0.518503 -0.515534 -0.511344 -0.506476 -0.500441 -0.494406 -0.488374 -0.480969 -0.472981 -0.463506 -0.454032 -0.444561 -0.433704 -0.422451 -0.409416 -0.396384 -0.383356 -0.369164 -0.355724 -0.340763 -0.325805 -0.310852 -0.295536 -0.280955 -0.263694 -0.246437 -0.229187 -0.211281 -0.196744 -0.179113 -0.161487 -0.143866 -0.126641 -0.115786 -0.1012 -0.0866231 -0.0720546 -0.0572296 -0.0531677 -0.0445021 -0.0358495 -0.0272098 -0.016165 -0.0184298 -0.0147614 -0.0111105 -0.00747704 0.000792382 -0.00637177 -0.00730912 -0.0082674 -0.00924664 -0.00467506 -0.0169011 -0.0236455 -0.0304121 -0.037201 -0.0383344 -0.0559195 -0.0691368 -0.0823757 -0.0956362 -0.10351 -0.126135 -0.145611 -0.165106 -0.184548 -0.199345 -0.226354 -0.251674 -0.276909 -0.301737 -0.323444 -0.354483 -0.385043 -0.415516 -0.445407 -0.473367 -0.508288 -0.543437 -0.578689 -0.613309 -0.646799 -0.685429 -0.724599 -0.764185 -0.803146 -0.841473 -0.883587 -0.92628 -0.969782 -1.01268 -1.05524 -1.10058 -1.14636 -1.1934 -1.23986 -1.28618 -1.33446 -1.38293 -1.43318 -1.48288 -1.53256 -1.58351 -1.63446 -1.68738 -1.74014 -1.79291 -1.84623 -1.89956 -1.95465 -2.0103 -2.06595 -2.1214 -2.17685 -2.23387 -2.29225 -2.35064 -2.40801 -2.46538 -2.52411 -2.5851 -2.64609 -2.70522 -2.76436 -2.82461 -2.88807 -2.95152 -3.01232 -3.07312 -3.13484 -3.20046 -3.26622 -3.32863 -3.39123 -3.45474 -3.52163 -3.58951 -3.65353 -3.71794 -3.7831 -3.85096 -3.92074 -3.98642 -4.05262 -4.1193 -4.18788 -4.25928 -4.32676 -4.39463 -4.4627 -4.53185 -4.60459 -4.67406 -4.74345 -4.81282 -4.8825 -4.9563 -5.02817 -5.09882 -5.16948 -5.24016 -5.31445 -5.38896 -5.4609 -5.53286 -5.60486 -5.6793 -5.75677 -5.82995 -5.90317 -5.97642 -6.05092 -6.13161 -6.20566 -6.27976 -6.35394 -6.42803 -6.51182 -6.58577 -6.65982 -6.73397 -6.80629 -6.89192 -6.96474 -7.03773 -7.11087 -7.18028 -7.26669 -7.33814 -7.40982 -7.48173 -7.54816 -7.63519 -7.70557 -7.77624 -7.84722 -7.91114 -7.99833 -8.06809 -8.13821 -8.2087 -8.27144 -8.35739 -8.42714 -8.49732 -8.5674 -8.6314 -8.71194 -8.78425 -8.85488 -8.92435 -8.99128 -9.06599 -9.13902 -9.20972 -9.27846 -9.34664 -9.41646 -9.48693 -9.55584 -9.62146 -9.68764 -9.75254 -9.81812 -9.88036 -9.94012 -10.0005 -10.0593 -10.1174 -10.1685 -10.2193 -10.2704 -10.321 -10.3634 -10.4036 -10.4444 -10.4841 -10.5114 -10.5315 -10.5519 -10.5726 -10.5898 -10.5992 -10.6087 -10.6182 -10.6278 -10.6324 -10.6529 -10.6714 -10.6905 -10.7077 -10.7073 -10.7184 -10.7289 -10.7328 -10.7187 -10.7051 -10.7019 -10.6972 -10.6758 -10.6521 -10.6255 -10.6129 -10.5888 -10.5634 -10.5383 -10.5165 -10.5084 -10.5004 -10.4924 -10.4831 -10.4695 -10.4312 -10.3898 -10.3489 -10.2974 -10.2395 -10.1902 -10.1415 -10.078 -10.0122 -9.9443 -9.91559 -9.8829 -9.84757 -9.81234 -9.77933 -9.74303 -9.70687 -9.67085 -9.63334 -9.59426 -9.51554 -9.43729 -9.35796 -9.27536 -9.19262 -9.13505 -9.07619 -9.01527 -8.95453 -8.89822 -8.86637 -8.83456 -8.8028 -8.77086 -8.73866 -8.63544 -8.53457 -8.43487 -8.33367 -8.23215 -8.13301 -8.03313 -7.93225 -7.83164 -7.73883 -7.72697 -7.71512 -7.70328 -7.69122 -7.67897 -7.56022 -7.44301 -7.32609 -7.20685 -7.08611 -6.9608 -6.83468 -6.70633 -6.57824 -6.45032 -6.44301 -6.43562 -6.42811 -6.4206 -6.41312 -6.28701 -6.16109 -6.03537 -5.90773 -5.77798 -5.63829 -5.49854 -5.35563 -5.21291 -5.0719 -5.04502 -5.01791 -4.99042 -4.96293 -4.9357 -4.81666 -4.69773 -4.5789 -4.45864 -4.33683 -4.18603 -4.03536 -3.88235 -3.73033 -3.57911 -3.53021 -3.48102 -3.43135 -3.38169 -3.33263 -3.22722 -3.12186 -3.01655 -2.91045 -2.80342 -2.6458 -2.48828 -2.33008 -2.17357 -2.01657 -1.94086 -1.86492 -1.78861 -1.71232 -1.63707 -1.55457 -1.47209 -1.38963 -1.30693 -1.22387 -1.064 -0.904188 -0.746542 -0.588856 -0.43078 -0.321685 -0.212577 -0.103447 0.00566195 0.113262 0.161963 0.21066 0.259354 0.307981 0.35658 0.514458 0.670277 0.825656 0.98026 1.13512 1.28516 1.43469 1.58364 1.73258 1.87966 1.88342 1.88717 1.89092 1.89465 1.89837 2.04849 2.19841 2.34831 2.49735 2.64577 2.79257 2.93936 3.08432 3.22869 3.37172 3.42056 3.46904 3.51718 3.56532 3.61336 3.70624 3.79912 3.892 3.985 4.07821 4.21509 4.35197 4.48844 4.62496 4.76147 4.86935 4.97729 5.08526 5.19323 5.30108 5.32456 5.34803 5.3715 5.39496 5.41834 5.54453 5.67046 5.7964 5.92207 6.04723 6.16805 6.28887 6.40903 6.52851 6.64788 6.76318 6.87775 6.99211 7.10648 7.22069 7.22485 7.22897 7.23309 7.23721 7.24132 7.34783 7.45433 7.56083 7.66635 7.76769 7.87544 7.98319 8.08738 8.18782 8.28813 8.39074 8.49071 8.58848 8.68625 8.78288 8.80347 8.82328 8.84289 8.8625 8.88214 8.95676 9.03137 9.10599 9.17984 9.25061 9.34254 9.43415 9.52348 9.60896 9.6943 9.78182 9.86778 9.95094 10.0341 10.1156 10.1459 10.175 10.2037 10.2324 10.2613 10.3125 10.3636 10.4148 10.4654 10.5139 10.592 10.6694 10.7459 10.8186 10.891 10.9654 11.0392 11.1098 11.1801 11.2491 11.2854 11.3202 11.3546 11.389 11.4237 11.457 11.4902 11.5235 11.5564 11.5878 11.6542 11.7194 11.7844 11.8467 11.9081 11.9714 12.0346 12.0945 12.1538 12.2123 12.2529 12.2919 12.3305 12.369 12.4081 12.4268 12.4455 12.4641 12.4826 12.5003 12.5564 12.6116 12.6668 12.7202 12.7723 12.826 12.8797 12.9312 12.981 13.0306 13.0755 13.1185 13.161 13.2036 13.2471 13.2528 13.2586 13.2644 13.2701 13.2756 13.3227 13.3695 13.4163 13.4623 13.5064 13.552 13.5976 13.6414 13.6836 13.7256 13.769 13.8109 13.8519 13.893 13.9336 13.9406 13.9472 13.9538 13.9603 13.967 13.9999 14.0329 14.0658 14.0985 14.1296 14.1682 14.2066 14.2441 14.2797 14.3153 14.352 14.3883 14.423 14.4576 14.4913 14.5122 14.5321 14.5519 14.5717 14.592 14.6053 14.6186 14.6319 14.6451 14.6577 14.6901 14.722 14.7538 14.7846 14.8146 14.8455 14.8765 14.9062 14.9347 14.9631 14.9926 15.0209 15.0487 15.0765 15.1038 15.1118 15.1195 15.1271 15.1347 15.1425 15.1614 15.1804 15.1993 15.2182 15.236 15.262 15.2875 15.3128 15.3371 15.3608 15.3854 15.4101 15.4336 15.4562 15.4787 15.502 15.5244 15.5464 15.5683 15.5898 15.5988 15.6072 15.6157 15.6241 15.6328 15.6453 15.6577 15.6701 15.6825 15.6942 15.7146 15.7344 15.7543 15.7736 15.7922 15.8115 15.8308 15.8493 15.8669 15.8844 15.9026 15.9206 15.9378 15.9546 15.9711 15.9883 16.0044 16.0205 16.0366 16.0525 16.0568 16.0609 16.065 16.0691 16.0733 16.0845 16.0956 16.1068 16.1179 16.1286 16.1433 16.1577 16.1721 16.1862 16.1997 16.2137 16.2276 16.2411 16.2537 16.2664 16.2795 16.2926 16.305 16.3169 16.3288 16.3411 16.353 16.3646 16.376 16.3871 16.3985 16.4094 16.4201 16.4309 16.4416 16.4464 16.4511 16.4558 16.4605 16.4655 16.4709 16.4763 16.4817 16.487 16.4922 16.5019 16.5114 16.5209 16.5304 16.5394 16.5486 16.5575 16.5664 16.575 16.5833 16.5919 16.6004 16.6087 16.6164 16.6242 16.6322 16.6401 16.6477 16.6549 16.6622 16.6696 16.677 16.6839 16.6907 16.6974 16.7043 16.711 16.7174 16.7238 16.7301 16.7365 16.7425 16.7485 16.7545 16.7603 16.7661 16.7717 16.7772 16.7828 16.7883 16.79 16.7916 16.7932 16.7948 16.7965 16.8001 16.8036 16.8071 16.8107 16.8141 16.819 16.8238 16.8286 16.8334 16.838 16.8425 16.8469 16.8513 16.8557 16.86 16.8641 16.8682 16.8723 16.8763 16.8802 16.884 16.8878 16.8916 16.8952 16.8988 16.9023 16.9058 16.9093 16.9125 16.9158 16.9191 16.9223 16.9254 16.9285 16.9315 16.9345 16.9374 16.9403 16.943 16.9458 16.9485 16.9512 16.9538 16.9564 16.9589 16.9614 16.9639 16.9662 16.9686 16.9709 16.9732 16.9754 16.9776 16.9797 16.9819 16.9839 16.9859 16.9879 16.9899 16.9918 16.9937 16.9955 16.9973 16.9991 17.0009 17.0026 17.0042 17.0059 17.0075 17.0091 17.0106 17.0121 17.0136 17.0151 17.0166 17.0173 17.0179 17.0186 17.0192 17.0199 17.0206 17.0213 17.022 17.0227 17.0234 17.0246 17.0258 17.0271 17.0283 17.0295 17.0306 17.0317 17.0329 17.034 17.0351 17.0361 17.0371 17.0381 17.0391 17.0401 17.0409 17.0419 17.0428 17.0437 17.0446 17.0454 17.0462 17.047 17.0478 17.0486 17.0493 17.05 17.0508 17.0515 17.0522 17.0529 17.0535 17.0542 17.0548 17.0555 17.056 17.0566 17.0572 17.0578 17.0583 17.0588 17.0593 17.0599 17.0604 17.0609 17.0613 17.0618 17.0622 17.0627 17.0631 17.0635 17.0639 17.0643 17.0647 17.0651 17.0654 17.0658 17.0661 17.0665 17.0668 17.0671 17.0674 17.0677 17.068 17.0683 17.0685 17.0687 17.069 17.0692 17.0695 17.0697 17.0699 17.0701 17.0703 17.0705 17.0706 17.0708 17.071 17.0711 17.0713 17.0714 17.0715 17.0717 17.0718 17.0719 17.072 17.0721 17.0722 17.0722 17.0723 17.0724 17.0725 17.0725 17.0726 17.0726 17.0727 17.0727 17.0727 17.0727 17.0728 17.0728 17.0728 17.0728 17.0728 17.0728 17.0728 17.0728 17.0728 17.0728 17.0728 17.0728 17.0728 17.0728 17.0728 17.0728 17.0728 17.0728 17.0728 17.0728 17.0728 17.0729 17.0729 17.073 17.073 17.073 17.0731 17.0732 17.0733 17.0735 17.0736 17.0737 17.074 17.0742 17.0744 17.0746 17.0749 17.0753 17.0756 17.076 17.0764 17.0769 17.0775 17.0781 17.0787 17.0793 17.0801 17.081 17.0819 17.0828 17.0838 17.085 17.0864 17.0877 17.0891 17.0905 17.0923 17.0943 17.0963 17.0984 17.1004 17.103 17.106 17.1089 17.1118 17.1148 17.1185 17.1227 17.1269 17.1311 17.1353 17.1406 17.1465 17.1525 17.1584 17.1644 17.1719 17.1803 17.1887 17.1971 17.2054 17.2155 17.2273 17.2391 17.2509 17.2623 17.275 17.2881 17.3012 17.3142 17.3234 17.3328 17.3556 17.3784 17.4019 17.4292 17.457 17.4578 17.4542 17.4507 17.4237 17.3829 17.3304 17.2779 17.2254 17.17 17.1093 17.0486 16.9879 16.9271 16.8667 16.8528 16.8389 16.825 16.8112 16.7959 16.7549 16.714 16.6731 16.6321 16.5912 16.5366 16.4816 16.4265 16.3714 16.3151 16.2569 16.198 16.139 16.0799 16.0193 15.9574 15.8945 15.8316 15.7688 15.7044 15.6389 15.5722 15.5054 15.4386 15.3701 15.3005 15.229 15.1575 15.0859 15.0122 14.9373 14.8604 14.7833 14.7057 14.6262 14.5451 14.462 14.3783 14.294 14.2078 14.1195 14.0295 13.9385 13.8463 13.7525 13.6563 13.5583 13.4589 13.358 13.2555 13.1502 13.0433 12.9344 12.8236 12.7113 12.5958 12.4788 12.3593 12.2372 12.1138 11.9868 11.8584 11.7269 11.5922 11.4562 11.3162 11.1749 11.0297 10.8807 10.7305 10.5757 10.4198 10.2592 10.0938 9.92743 9.75588 9.58333 9.40493 9.22082 9.03582 8.84494 8.65317 8.45454 8.24927 8.04321 7.83047 7.61678 7.39389 7.16215 6.9296 6.68935 6.44843 6.19994 5.94406 5.68759 5.42241 5.15516 4.86261 4.54576 4.22721 3.89771 3.57098 3.27888 3.01823 2.76002 2.49229 2.22102 1.66627 0.832756 0