# vtk DataFile Version 2.0
track0
ASCII
DATASET POLYDATA
POINTS 11935 float
-0.0205 0.001 1e-05
-0.0202034 0.0010001 1e-05
-0.0199069 0.00100036 1e-05
-0.0196103 0.00100073 1e-05
-0.0193137 0.00100122 1e-05
-0.0190172 0.00100181 1e-05
-0.0187132 0.00100306 1e-05
-0.0184093 0.0010035 1e-05
-0.0181054 0.00100392 1e-05
-0.0178015 0.00100431 1e-05
-0.0174976 0.00100468 1e-05
-0.0172058 0.00100561 1e-05
-0.016914 0.00100587 1e-05
-0.0166222 0.00100614 1e-05
-0.0163305 0.00100643 1e-05
-0.0160387 0.00100673 1e-05
-0.0157586 0.00100756 1e-05
-0.0154784 0.00100792 1e-05
-0.0151983 0.00100833 1e-05
-0.0149182 0.00100878 1e-05
-0.0146381 0.00100929 1e-05
-0.0143692 0.00101021 1e-05
-0.0141002 0.0010108 1e-05
-0.0138313 0.00101145 1e-05
-0.0135624 0.00101213 1e-05
-0.0132934 0.00101287 1e-05
-0.0130353 0.00101389 1e-05
-0.0127771 0.00101469 1e-05
-0.0125189 0.00101553 1e-05
-0.0122607 0.00101641 1e-05
-0.0120025 0.00101733 1e-05
-0.0117547 0.00101841 1e-05
-0.0115068 0.00101937 1e-05
-0.0112589 0.00102036 1e-05
-0.0110111 0.00102137 1e-05
-0.0107632 0.00102241 1e-05
-0.0105252 0.00102355 1e-05
-0.0102873 0.00102461 1e-05
-0.0100493 0.00102569 1e-05
-0.00981133 0.0010268 1e-05
-0.00957337 0.00102793 1e-05
-0.00934491 0.00102909 1e-05
-0.00911645 0.00103023 1e-05
-0.00888799 0.00103137 1e-05
-0.00865954 0.00103254 1e-05
-0.00843108 0.00103373 1e-05
-0.00821175 0.00103491 1e-05
-0.00799242 0.00103608 1e-05
-0.00777309 0.00103727 1e-05
-0.00755376 0.00103847 1e-05
-0.00733443 0.00103969 1e-05
-0.00731435 0.0010398 1e-05
-0.00729428 0.00103991 1e-05
-0.0072742 0.00104003 1e-05
-0.00725412 0.00104014 1e-05
-0.00723417 0.00104025 1e-05
-0.00704365 0.00104133 1e-05
-0.00685314 0.00104242 1e-05
-0.00666263 0.00104351 1e-05
-0.00647211 0.00104462 1e-05
-0.0062816 0.00104574 1e-05
-0.00607944 0.00104693 1e-05
-0.00587729 0.00104814 1e-05
-0.00567514 0.00104936 1e-05
-0.00547298 0.00105059 1e-05
-0.00527083 0.00105184 1e-05
-0.00507675 0.00105303 1e-05
-0.00488267 0.00105425 1e-05
-0.0046886 0.00105548 1e-05
-0.00449452 0.00105672 1e-05
-0.00430044 0.00105797 1e-05
-0.00411412 0.00105917 1e-05
-0.0039278 0.00106039 1e-05
-0.00374147 0.00106163 1e-05
-0.00355515 0.00106288 1e-05
-0.00336883 0.00106415 1e-05
-0.00318995 0.00106536 1e-05
-0.00301107 0.00106661 1e-05
-0.00283219 0.00106787 1e-05
-0.00265331 0.00106914 1e-05
-0.00247443 0.00107044 1e-05
-0.0023027 0.00107168 1e-05
-0.00213097 0.00107296 1e-05
-0.00195924 0.00107426 1e-05
-0.00178751 0.00107558 1e-05
-0.00161577 0.00107693 1e-05
-0.0014509 0.00107823 1e-05
-0.00128603 0.00107957 1e-05
-0.00112116 0.00108094 1e-05
-0.000956291 0.00108233 1e-05
-0.000791418 0.00108376 1e-05
-0.000633135 0.00108514 1e-05
-0.000474851 0.00108656 1e-05
-0.000316568 0.00108801 1e-05
-0.000158285 0.00108948 1e-05
0 0.00109097 1e-05
0.000105677 0.00109198 1e-05
0.000211355 0.00109301 1e-05
0.000317032 0.00109406 1e-05
0.000422709 0.00109513 1e-05
0.000528387 0.00109621 1e-05
0.000634886 0.0010973 1e-05
0.000741385 0.00109844 1e-05
0.000847883 0.0010996 1e-05
0.000954382 0.00110078 1e-05
0.00106088 0.00110199 1e-05
0.00116821 0.00110321 1e-05
0.00127554 0.00110448 1e-05
0.00138286 0.00110578 1e-05
0.00149019 0.0011071 1e-05
0.00159752 0.00110846 1e-05
0.00170568 0.00110983 1e-05
0.00181384 0.00111125 1e-05
0.001922 0.00111272 1e-05
0.00203016 0.00111421 1e-05
0.00213833 0.00111574 1e-05
0.00224733 0.00111728 1e-05
0.00235633 0.00111889 1e-05
0.00246533 0.00112054 1e-05
0.00257433 0.00112222 1e-05
0.00268334 0.00112395 1e-05
0.00279319 0.00112569 1e-05
0.00290304 0.0011275 1e-05
0.00301288 0.00112936 1e-05
0.00312273 0.00113126 1e-05
0.00323259 0.0011332 1e-05
0.00334329 0.00113516 1e-05
0.00345399 0.00113719 1e-05
0.0035647 0.00113927 1e-05
0.0036754 0.00114139 1e-05
0.00378611 0.00114356 1e-05
0.00389767 0.00114574 1e-05
0.00400923 0.001148 1e-05
0.0041208 0.00115031 1e-05
0.00423236 0.00115266 1e-05
0.00434393 0.00115505 1e-05
0.00445636 0.00115746 1e-05
0.00456879 0.00115995 1e-05
0.00468122 0.00116247 1e-05
0.00479365 0.00116505 1e-05
0.00490609 0.00116766 1e-05
0.0050194 0.00117029 1e-05
0.0051327 0.001173 1e-05
0.005246 0.00117575 1e-05
0.00535931 0.00117853 1e-05
0.00547262 0.00118136 1e-05
0.00558681 0.0011842 1e-05
0.00570099 0.00118712 1e-05
0.00581518 0.00119007 1e-05
0.00592936 0.00119307 1e-05
0.00604356 0.00119609 1e-05
0.00615863 0.00119914 1e-05
0.0062737 0.00120225 1e-05
0.00638878 0.00120541 1e-05
0.00650385 0.0012086 1e-05
0.00661893 0.00121182 1e-05
0.0067349 0.00121505 1e-05
0.00685087 0.00121835 1e-05
0.00696683 0.0012217 1e-05
0.0070828 0.00122507 1e-05
0.00719878 0.00122846 1e-05
0.00731565 0.00123187 1e-05
0.00743252 0.00123535 1e-05
0.00754939 0.00123887 1e-05
0.00766625 0.00124242 1e-05
0.00778313 0.00124597 1e-05
0.00790091 0.00124954 1e-05
0.00801869 0.00125317 1e-05
0.00813647 0.00125686 1e-05
0.00825424 0.00126056 1e-05
0.00837203 0.00126427 1e-05
0.00849073 0.00126799 1e-05
0.00860942 0.00127176 1e-05
0.00872811 0.00127559 1e-05
0.00884681 0.00127945 1e-05
0.00896551 0.00128328 1e-05
0.00908513 0.00128713 1e-05
0.00920475 0.00129104 1e-05
0.00932436 0.00129501 1e-05
0.00944397 0.00129899 1e-05
0.0095636 0.00130295 1e-05
0.00968415 0.00130691 1e-05
0.0098047 0.00131093 1e-05
0.00992524 0.00131501 1e-05
0.0100458 0.0013191 1e-05
0.0101663 0.00132316 1e-05
0.0102878 0.00132723 1e-05
0.0104093 0.00133135 1e-05
0.0105308 0.00133552 1e-05
0.0106523 0.0013397 1e-05
0.0107738 0.00134385 1e-05
0.0108962 0.00134801 1e-05
0.0110186 0.00135221 1e-05
0.0111411 0.00135646 1e-05
0.0112635 0.00136072 1e-05
0.0113859 0.00136495 1e-05
0.0115093 0.00136917 1e-05
0.0116327 0.00137344 1e-05
0.0117561 0.00137775 1e-05
0.0118794 0.00138207 1e-05
0.0120028 0.00138635 1e-05
0.0121272 0.00139063 1e-05
0.0122515 0.00139495 1e-05
0.0123759 0.00139931 1e-05
0.0125002 0.00140367 1e-05
0.0126245 0.00140799 1e-05
0.0127498 0.00141231 1e-05
0.0128752 0.00141666 1e-05
0.0130005 0.00142104 1e-05
0.0131258 0.00142543 1e-05
0.0132511 0.00142977 1e-05
0.0133774 0.00143411 1e-05
0.0135036 0.00143848 1e-05
0.0136299 0.00144287 1e-05
0.0137562 0.00144725 1e-05
0.0138825 0.0014516 1e-05
0.0140098 0.00145595 1e-05
0.014137 0.00146032 1e-05
0.0142643 0.00146469 1e-05
0.0143915 0.00146906 1e-05
0.0145188 0.0014734 1e-05
0.0146471 0.00147773 1e-05
0.0147753 0.00148208 1e-05
0.0149036 0.00148643 1e-05
0.0150318 0.00149076 1e-05
0.0151601 0.00149507 1e-05
0.0152893 0.00149937 1e-05
0.0154186 0.00150368 1e-05
0.0155478 0.00150798 1e-05
0.0156771 0.00151226 1e-05
0.0158063 0.00151652 1e-05
0.0159366 0.00152077 1e-05
0.0160668 0.00152503 1e-05
0.0161971 0.00152926 1e-05
0.0163274 0.00153347 1e-05
0.0164576 0.00153766 1e-05
0.0165889 0.00154185 1e-05
0.0167201 0.00154602 1e-05
0.0168514 0.00155017 1e-05
0.0169827 0.00155429 1e-05
0.0171139 0.00155839 1e-05
0.0172462 0.00156248 1e-05
0.0173785 0.00156656 1e-05
0.0175108 0.0015706 1e-05
0.0176431 0.00157462 1e-05
0.0177754 0.0015786 1e-05
0.0179087 0.00158258 1e-05
0.018042 0.00158654 1e-05
0.0181753 0.00159046 1e-05
0.0183087 0.00159434 1e-05
0.018442 0.0015982 1e-05
0.0185763 0.00160204 1e-05
0.0187107 0.00160585 1e-05
0.018845 0.00160962 1e-05
0.0189794 0.00161336 1e-05
0.0191137 0.00161705 1e-05
0.0192491 0.00162074 1e-05
0.0193845 0.00162438 1e-05
0.0195199 0.00162799 1e-05
0.0196553 0.00163154 1e-05
0.0197907 0.00163506 1e-05
0.0199272 0.00163856 1e-05
0.0200636 0.00164201 1e-05
0.0202001 0.00164542 1e-05
0.0203365 0.00164878 1e-05
0.020473 0.00165209 1e-05
0.0206105 0.00165538 1e-05
0.020748 0.00165862 1e-05
0.0208855 0.0016618 1e-05
0.021023 0.00166493 1e-05
0.0211606 0.00166801 1e-05
0.0212991 0.00167106 1e-05
0.0214377 0.00167405 1e-05
0.0215763 0.00167698 1e-05
0.0217149 0.00167986 1e-05
0.0218535 0.00168267 1e-05
0.0219931 0.00168545 1e-05
0.0221328 0.00168817 1e-05
0.0222724 0.00169082 1e-05
0.0224121 0.00169341 1e-05
0.0225517 0.00169593 1e-05
0.0226049 0.00169687 1e-05
0.0226581 0.0016978 1e-05
0.0227114 0.00169871 1e-05
0.0227646 0.00169962 1e-05
0.0228339 0.00170079 1e-05
0.0229182 0.00170219 1e-05
0.0230025 0.00170356 1e-05
0.0230869 0.00170491 1e-05
0.0231712 0.00170623 1e-05
0.0232555 0.00170753 1e-05
0.0233973 0.00170967 1e-05
0.0235391 0.00171173 1e-05
0.023681 0.00171371 1e-05
0.0238228 0.00171561 1e-05
0.0239647 0.00171743 1e-05
0.0241076 0.00171919 1e-05
0.0242505 0.00172086 1e-05
0.0243935 0.00172244 1e-05
0.0245364 0.00172393 1e-05
0.0246794 0.00172533 1e-05
0.0248234 0.00172666 1e-05
0.0249675 0.00172788 1e-05
0.0251115 0.00172901 1e-05
0.0252556 0.00173004 1e-05
0.0253996 0.00173097 1e-05
0.0255274 0.00173171 1e-05
0.0256552 0.00173237 1e-05
0.0257829 0.00173295 1e-05
0.0259107 0.00173344 1e-05
0.0259264 0.00173349 1e-05
0.0259663 0.00173361 1e-05
0.0260061 0.00173373 1e-05
0.0260459 0.00173384 1e-05
0.0260857 0.00173394 1e-05
0.0261255 0.00173403 1e-05
0.0262718 0.00173434 1e-05
0.0264181 0.00173453 1e-05
0.0265644 0.0017346 1e-05
0.0267107 0.00173456 1e-05
0.026857 0.00173441 1e-05
0.0270044 0.00173413 1e-05
0.0271519 0.00173373 1e-05
0.0272993 0.00173321 1e-05
0.0274467 0.00173255 1e-05
0.0275942 0.00173177 1e-05
0.0277428 0.00173087 1e-05
0.0278914 0.00172982 1e-05
0.0280399 0.00172864 1e-05
0.0281885 0.00172731 1e-05
0.0283371 0.00172585 1e-05
0.0284869 0.00172425 1e-05
0.0286366 0.0017225 1e-05
0.0287863 0.0017206 1e-05
0.0289361 0.00171855 1e-05
0.0290858 0.00171634 1e-05
0.0292367 0.00171399 1e-05
0.0293876 0.00171147 1e-05
0.0295385 0.00170878 1e-05
0.0296894 0.00170594 1e-05
0.0298403 0.00170293 1e-05
0.0299924 0.00169975 1e-05
0.0301445 0.00169639 1e-05
0.0302966 0.00169285 1e-05
0.0304486 0.00168913 1e-05
0.0306007 0.00168524 1e-05
0.030754 0.00168117 1e-05
0.0309072 0.00167689 1e-05
0.0310605 0.00167242 1e-05
0.0312137 0.00166776 1e-05
0.031367 0.00166291 1e-05
0.0315215 0.00165786 1e-05
0.0316759 0.00165259 1e-05
0.0318304 0.0016471 1e-05
0.0319848 0.0016414 1e-05
0.0321393 0.00163551 1e-05
0.0322949 0.00162939 1e-05
0.0324506 0.00162302 1e-05
0.0326062 0.00161642 1e-05
0.0327618 0.00160959 1e-05
0.0329175 0.00160255 1e-05
[...]
POINT_DATA 11935
 FIELD attributes 2
p 1 11935 float
-3.32879 -3.32088 -3.31254 -3.30416 -3.29575 -3.29576 -3.2678 -3.28274 -3.29766 -3.31257 -3.37221 -3.37659 -3.41335 -3.45012 -3.48689 -3.54606 -3.54281 -3.56694 -3.59108 -3.61525 -3.65843 -3.65894 -3.67857 -3.69822 -3.71788 -3.75175 -3.7568 -3.77391 -3.79103 -3.80816 -3.83418 -3.84038 -3.85401 -3.86765 -3.8813 -3.90016 -3.90623 -3.91668 -3.92713 -3.93758 -3.95082 -3.95639 -3.96425 -3.97212 -3.97999 -3.98899 -3.99364 -3.99921 -4.00478 -4.01035 -4.016 -4.01626 -4.01658 -4.0169 -4.01721 -4.01753 -4.02056 -4.02359 -4.02662 -4.02965 -4.03217 -4.03365 -4.0347 -4.03576 -4.03681 -4.03696 -4.03635 -4.03495 -4.03355 -4.03215 -4.02958 -4.02657 -4.02246 -4.01835 -4.01425 -4.00882 -4.00309 -3.99599 -3.98888 -3.98178 -3.97335 -3.96484 -3.95474 -3.94463 -3.93452 -3.92328 -3.91315 -3.90173 -3.89031 -3.87889 -3.86702 -3.85616 -3.84295 -3.82975 -3.81655 -3.80242 -3.79125 -3.77715 -3.76306 -3.74896 -3.73468 -3.72626 -3.71421 -3.70215 -3.69011 -3.6772 -3.67417 -3.66659 -3.65902 -3.65146 -3.64107 -3.64271 -3.63849 -3.63429 -3.63009 -3.62112 -3.62608 -3.62481 -3.62356 -3.62232 -3.61556 -3.62416 -3.6271 -3.63005 -3.63302 -3.63042 -3.64313 -3.65107 -3.65903 -3.66701 -3.66968 -3.68642 -3.6994 -3.71241 -3.72543 -3.73371 -3.75416 -3.77195 -3.78974 -3.80755 -3.82138 -3.84518 -3.86749 -3.88975 -3.91174 -3.93109 -3.95803 -3.98449 -4.01088 -4.03684 -4.06117 -4.09117 -4.12129 -4.15146 -4.18116 -4.20987 -4.24279 -4.27614 -4.30976 -4.34289 -4.37544 -4.41111 -4.44728 -4.484 -4.52025 -4.55617 -4.59435 -4.63296 -4.67248 -4.71155 -4.75045 -4.79087 -4.83157 -4.87358 -4.9152 -4.95676 -4.99916 -5.04158 -5.0858 -5.12977 -5.17374 -5.21785 -5.26197 -5.30782 -5.35397 -5.40012 -5.4457 -5.49129 -5.5385 -5.58665 -5.6348 -5.68162 -5.72845 -5.77682 -5.82679 -5.87676 -5.92466 -5.97257 -6.02191 -6.07354 -6.12516 -6.17401 -6.22286 -6.27304 -6.32614 -6.37926 -6.42897 -6.4787 -6.52975 -6.58398 -6.63839 -6.68891 -6.73972 -6.79176 -6.84646 -6.90199 -6.9533 -7.00518 -7.05811 -7.11309 -7.16953 -7.22163 -7.27456 -7.32826 -7.38338 -7.44053 -7.49343 -7.54734 -7.60173 -7.6569 -7.71457 -7.76829 -7.82306 -7.87804 -7.93325 -7.99125 -8.0458 -8.10128 -8.15678 -8.21228 -8.27022 -8.32568 -8.3816 -8.43753 -8.49347 -8.55111 -8.60735 -8.66363 -8.71992 -8.77621 -8.83359 -8.89044 -8.94701 -9.00358 -9.06016 -9.11733 -9.1746 -9.23138 -9.28817 -9.34497 -9.402 -9.4595 -9.51642 -9.57336 -9.6303 -9.68727 -9.74482 -9.80182 -9.85883 -9.91585 -9.9728 -10.0302 -10.0872 -10.1443 -10.2013 -10.2583 -10.3155 -10.3724 -10.4294 -10.4864 -10.5434 -10.565 -10.5865 -10.608 -10.6295 -10.6576 -10.6917 -10.7258 -10.7599 -10.7941 -10.8281 -10.8848 -10.9414 -10.9981 -11.0548 -11.1113 -11.1672 -11.223 -11.2789 -11.3348 -11.3905 -11.4453 -11.5002 -11.555 -11.6099 -11.6647 -11.7121 -11.7594 -11.8068 -11.8543 -11.8601 -11.8749 -11.8897 -11.9045 -11.9194 -11.9341 -11.987 -12.0398 -12.0927 -12.1456 -12.1981 -12.2504 -12.3019 -12.3534 -12.4051 -12.4556 -12.5072 -12.5571 -12.607 -12.657 -12.7049 -12.7561 -12.8039 -12.8519 -12.8999 -12.9444 -12.9953 -13.0408 -13.0863 -13.132 -13.1724 -13.2233 -13.2659 -13.3086 -13.3515 -13.3868 -13.4375 -13.4773 -13.5167 -13.5544 -13.5853 -13.6327 -13.6727 -13.7081 -13.7388 -13.7652 -13.8087 -13.8493 -13.8801 -13.9022 -13.9232 -13.9618 -14.0006 -14.0261 -14.0406 -14.0554 -14.0881 -14.1211 -14.1427 -14.1497 -14.1568 -14.1824 -14.2053 -14.2188 -14.2236 -14.2218 -14.2386 -14.2449 -14.2486 -14.2525 -14.243 -14.2436 -14.2352 -14.2271 -14.2193 -14.2135 -14.2132 -14.2129 -14.2126 -14.2124 -14.2112 -14.1934 -14.1746 -14.1563 -14.1385 -14.1072 -14.0919 -14.0615 -14.0272 -13.9812 -13.9289 -13.8961 -13.8639 -13.8121 -13.739 -13.6664 -13.6132 -13.5493 -13.4755 -13.4024 -13.3132 -13.2826 -13.2442 -13.2053 -13.1665 -13.1313 -13.0806 -13.0302 -12.9801 -12.928 -12.8653 -12.7798 -12.6851 -12.5845 -12.4676 -12.3501 -12.2497 -12.1475 -12.0385 -11.9305 -11.8144 -11.7887 -11.7629 -11.737 -11.7111 -11.6861 -11.6081 -11.5306 -11.4537 -11.3775 -11.3016 -11.2008 -11.1011 -11.0047 -10.9145 -10.8246 -10.7835 -10.7428 -10.703 -10.6633 -10.626 -10.5696 -10.5135 -10.4577 -10.4017 -10.3453 -10.2387 -10.133 -10.0343 -9.93794 -9.84151 -9.77622 -9.7106 -9.64431 -9.5783 -9.51688 -9.47448 -9.43217 -9.38996 -9.34656 -9.3022 -9.18266 -9.06565 -8.95269 -8.83607 -8.71903 -8.63707 -8.55411 -8.46895 -8.38401 -8.30425 -8.26116 -8.21813 -8.17516 -8.13097 -8.08598 -7.94823 -7.81279 -7.6796 -7.54238 -7.40449 -7.31359 -7.22185 -7.12791 -7.03411 -6.94464 -6.89179 -6.83898 -6.78622 -6.73227 -6.67759 -6.5232 -6.36983 -6.21871 -6.06457 -5.90961 -5.81849 -5.72679 -5.63348 -5.54025 -5.45007 -5.38192 -5.31382 -5.24577 -5.17668 -5.1069 -4.93991 -4.77313 -4.60817 -4.44213 -4.27526 -4.18976 -4.10394 -4.01723 -3.93055 -3.8458 -3.76135 -3.67695 -3.59259 -3.50754 -3.42194 -3.24738 -3.07295 -2.89939 -2.72696 -2.55377 -2.47547 -2.39708 -2.31841 -2.23975 -2.16225 -2.06542 -1.96861 -1.87184 -1.77496 -1.67781 -1.50092 -1.32412 -1.14829 -0.97501 -0.801137 -0.727155 -0.653284 -0.579651 -0.506031 -0.433116 -0.332252 -0.231405 -0.130576 -0.0301881 0.0701308 0.244193 0.418213 0.590549 0.759949 0.929738 1.00605 1.08206 1.15747 1.23287 1.30782 1.40124 1.49465 1.58805 1.68148 1.77501 1.94122 2.10742 2.27262 2.43688 2.60128 2.68862 2.77592 2.86316 2.9504 3.0374 3.11056 3.18372 3.25688 3.32997 3.40289 3.55913 3.71415 3.86851 4.02204 4.17542 4.32432 4.47283 4.62063 4.76843 4.91501 4.94398 4.97279 5.00149 5.03019 5.05896 5.17304 5.28713 5.40122 5.51328 5.62178 5.76133 5.9009 6.03528 6.16455 6.29351 6.40495 6.51286 6.61866 6.72446 6.83203 6.85167 6.87131 6.89095 6.9102 6.92877 7.05128 7.17236 7.29345 7.4106 7.52447 7.64151 7.75857 7.86939 7.97829 8.0854 8.14237 8.19722 8.25088 8.30455 8.35908 8.41016 8.46124 8.51232 8.56232 8.6102 8.71257 8.81341 8.91322 9.0069 9.10007 9.19619 9.29038 9.38059 9.4708 9.55875 9.5829 9.60603 9.62867 9.65131 9.6742 9.73743 9.80065 9.86387 9.9258 9.98464 10.0678 10.151 10.2306 10.3062 10.3815 10.4594 10.5345 10.6074 10.6802 10.7519 10.7624 10.7725 10.7823 10.7922 10.8021 10.8617 10.9212 10.9808 11.0393 11.0945 11.1615 11.2284 11.2924 11.3532 11.4135 11.4762 11.5367 11.5952 11.6537 11.7111 11.7231 11.7345 11.7457 11.757 11.7683 11.8127 11.8571 11.9014 11.9452 11.9863 12.0401 12.0936 12.1454 12.1941 12.2426 12.293 12.3424 12.3894 12.4363 12.4817 12.5064 12.5296 12.5526 12.5756 12.5994 12.6206 12.6419 12.6631 12.6842 12.7039 12.7471 12.7892 12.8312 12.8715 12.9105 12.9511 12.9917 13.0302 13.067 13.1036 13.1417 13.1779 13.2136 13.2492 13.2842 13.2918 13.2989 13.3059 13.313 13.3202 13.3469 13.3737 13.4005 13.4272 13.4522 13.485 13.5173 13.5492 13.5795 13.6092 13.6401 13.671 13.7004 13.7285 13.7565 13.7855 13.8134 13.8406 13.8679 13.8946 13.9061 13.9169 13.9278 13.9387 13.9499 13.9649 13.9798 13.9947 14.0096 14.0236 14.0487 14.0732 14.0977 14.1216 14.1445 14.1683 14.192 14.2148 14.2365 14.2581 14.2805 14.3028 14.3239 14.3446 14.365 14.3861 14.4061 14.426 14.4459 14.4655 14.4744 14.4829 14.4914 14.5 14.5089 14.5192 14.5294 14.5397 14.55 14.5598 14.578 14.596 14.6139 14.6317 14.6486 14.666 14.6832 14.7001 14.7163 14.7323 14.7487 14.7652 14.781 14.7961 14.8113 14.8269 14.8423 14.857 14.8716 14.8859 14.9007 14.9148 14.9288 14.9428 14.9565 14.968 14.9791 14.9902 15.0014 15.0135 15.0154 15.0174 15.0193 15.0213 15.0232 15.0359 15.0486 15.0613 15.0739 15.0862 15.0985 15.1105 15.1226 15.1345 15.1459 15.1576 15.1692 15.1806 15.1916 15.2025 15.2137 15.2248 15.2355 15.2459 15.2563 15.2668 15.2774 15.2875 15.2974 15.3072 15.3173 15.3272 15.3368 15.3463 15.3557 15.3652 15.3745 15.3836 15.3927 15.4017 15.4107 15.4194 15.4281 15.4368 15.4454 15.4519 15.4583 15.4648 15.4712 15.4781 15.4799 15.4817 15.4834 15.4852 15.487 15.4949 15.5029 15.5108 15.5187 15.5265 15.5341 15.5417 15.5493 15.5568 15.5641 15.5714 15.5787 15.5859 15.593 15.5999 15.6069 15.6138 15.6207 15.6274 15.634 15.6407 15.6473 15.6539 15.6602 15.6665 15.6729 15.6792 15.6854 15.6914 15.6975 15.7035 15.7095 15.7154 15.7212 15.7269 15.7327 15.7384 15.744 15.7495 15.755 15.7605 15.7659 15.7712 15.7765 15.7817 15.7869 15.792 15.7971 15.8021 15.8071 15.8121 15.8169 15.8218 15.8266 15.8313 15.8361 15.8407 15.8452 15.8498 15.8544 15.8588 15.8632 15.8676 15.8719 15.8763 15.8805 15.8846 15.8888 15.8929 15.8971 15.8987 15.9002 15.9018 15.9033 15.905 15.9073 15.9097 15.9121 15.9145 15.9169 15.9206 15.9244 15.9282 15.9319 15.9357 15.9392 15.9428 15.9464 15.9499 15.9534 15.9568 15.9602 15.9636 15.967 15.9703 15.9735 15.9767 15.9799 15.9831 15.9862 15.9892 15.9922 15.9952 15.9982 16.0012 16.004 16.0069 16.0097 16.0125 16.0153 16.018 16.0206 16.0233 16.0259 16.0285 16.031 16.0335 16.036 16.0385 16.0409 16.0432 16.0456 16.0479 16.0502 16.0524 16.0546 16.0568 16.0589 16.061 16.0631 16.0651 16.0671 16.0691 16.071 16.073 16.0748 16.0767 16.0785 16.0802 16.082 16.0837 16.0854 16.087 16.0886 16.0903 16.0918 16.0933 16.0947 16.0962 16.0977 16.099 16.1004 16.1017 16.103 16.1043 16.1055 16.1067 16.1078 16.109 16.1101 16.1111 16.1122 16.1132 16.1141 16.1151 16.116 16.1169 16.1177 16.1186 16.1194 16.1201 16.1208 16.1215 16.1222 16.1229 16.1235 16.124 16.1246 16.1251 16.1257 16.1261 16.1265 16.127 16.1274 16.1278 16.1281 16.1284 16.1287 16.129 16.1293 16.1295 16.1297 16.1299 16.1301 16.1302 16.1304 16.1305 16.1306 16.1308 16.1309 16.131 16.1311 16.1312 16.1313 16.1314 16.1315 16.1317 16.1318 16.132 16.1322 16.1324 16.1327 16.133 16.1333 16.1336 16.134 16.1346 16.1352 16.1358 16.1363 16.1372 16.1382 16.1393 16.1403 16.1413 16.1427 16.1443 16.146 16.1476 16.149 16.1511 16.1537 16.1562 16.1587 16.161 16.1628 16.1642 16.1655 16.1668 16.166 16.1665 16.1719 16.1771 16.1823 16.1908 16.1961 16.1892 16.1824 16.1755 16.1652 16.1543 16.1421 16.1298 16.1175 16.103 16.0855 16.0681 16.0506 16.0331 16.0133 15.9748 15.9371 15.8993 15.8616 15.8237 15.7846 15.746 15.7074 15.6687 15.6297 15.5892 15.5479 15.5064 15.4643 15.4213 15.3766 15.3315 15.2857 15.2389 15.1917 15.1426 15.0934 15.0432 14.9917 14.9402 14.8866 14.833 14.778 14.7216 14.6652 14.6065 14.5478 14.4875 14.4255 14.3635 14.299 14.2345 14.1681 14.0998 14.0315 13.9604 13.8891 13.8158 13.7408 13.6654 13.587 13.5076 13.4267 13.3445 13.261 13.1744 13.0859 12.9964 12.9061 12.8138 12.7179 12.6191 12.5199 12.4207 12.3183 12.2116 12.1016 11.9915 11.8814 11.7685 11.6492 11.5269 11.4046 11.2822 11.1577 11.0239 10.8878 10.7516 10.6154 10.4776 10.3275 10.1756 10.0237 9.87179 9.71918 9.6067 9.49342 9.38014 9.26687 9.1274 9.07613 9.02486 8.97359 8.92231 8.87069 8.68129 8.49146 8.30163 8.11178 7.92029 7.70794 7.4932 7.27845 7.06368 6.84507 6.6079 6.36822 6.12854 5.88885 5.64579 5.37539 5.08813 4.80082 4.51346 4.20581 3.89228 3.61221 3.3319 3.05134 2.80914 2.52196 1.98049 1.44127 0.883918 0