# vtk DataFile Version 2.0
track0
ASCII
DATASET POLYDATA
POINTS 11935 float
-0.0205 0.001 1e-05
-0.0202034 0.0010001 1e-05
-0.0199069 0.00100036 1e-05
-0.0196103 0.00100073 1e-05
-0.0193137 0.00100122 1e-05
-0.0190172 0.00100181 1e-05
-0.0187132 0.00100306 1e-05
-0.0184093 0.0010035 1e-05
-0.0181054 0.00100392 1e-05
-0.0178015 0.00100431 1e-05
-0.0174976 0.00100468 1e-05
-0.0172058 0.00100561 1e-05
-0.016914 0.00100587 1e-05
-0.0166222 0.00100614 1e-05
-0.0163305 0.00100643 1e-05
-0.0160387 0.00100673 1e-05
-0.0157586 0.00100756 1e-05
-0.0154784 0.00100792 1e-05
-0.0151983 0.00100833 1e-05
-0.0149182 0.00100878 1e-05
-0.0146381 0.00100929 1e-05
-0.0143692 0.00101021 1e-05
-0.0141002 0.0010108 1e-05
-0.0138313 0.00101145 1e-05
-0.0135624 0.00101213 1e-05
-0.0132934 0.00101287 1e-05
-0.0130353 0.00101389 1e-05
-0.0127771 0.00101469 1e-05
-0.0125189 0.00101553 1e-05
-0.0122607 0.00101641 1e-05
-0.0120025 0.00101733 1e-05
-0.0117547 0.00101841 1e-05
-0.0115068 0.00101937 1e-05
-0.0112589 0.00102036 1e-05
-0.0110111 0.00102137 1e-05
-0.0107632 0.00102241 1e-05
-0.0105252 0.00102355 1e-05
-0.0102873 0.00102461 1e-05
-0.0100493 0.00102569 1e-05
-0.00981133 0.0010268 1e-05
-0.00957337 0.00102793 1e-05
-0.00934491 0.00102909 1e-05
-0.00911645 0.00103023 1e-05
-0.00888799 0.00103137 1e-05
-0.00865954 0.00103254 1e-05
-0.00843108 0.00103373 1e-05
-0.00821175 0.00103491 1e-05
-0.00799242 0.00103608 1e-05
-0.00777309 0.00103727 1e-05
-0.00755376 0.00103847 1e-05
-0.00733443 0.00103969 1e-05
-0.00731435 0.0010398 1e-05
-0.00729428 0.00103991 1e-05
-0.0072742 0.00104003 1e-05
-0.00725412 0.00104014 1e-05
-0.00723417 0.00104025 1e-05
-0.00704365 0.00104133 1e-05
-0.00685314 0.00104242 1e-05
-0.00666263 0.00104351 1e-05
-0.00647211 0.00104462 1e-05
-0.0062816 0.00104574 1e-05
-0.00607944 0.00104693 1e-05
-0.00587729 0.00104814 1e-05
-0.00567514 0.00104936 1e-05
-0.00547298 0.00105059 1e-05
-0.00527083 0.00105184 1e-05
-0.00507675 0.00105303 1e-05
-0.00488267 0.00105425 1e-05
-0.0046886 0.00105548 1e-05
-0.00449452 0.00105672 1e-05
-0.00430044 0.00105797 1e-05
-0.00411412 0.00105917 1e-05
-0.0039278 0.00106039 1e-05
-0.00374147 0.00106163 1e-05
-0.00355515 0.00106288 1e-05
-0.00336883 0.00106415 1e-05
-0.00318995 0.00106536 1e-05
-0.00301107 0.00106661 1e-05
-0.00283219 0.00106787 1e-05
-0.00265331 0.00106914 1e-05
-0.00247443 0.00107044 1e-05
-0.0023027 0.00107168 1e-05
-0.00213097 0.00107296 1e-05
-0.00195924 0.00107426 1e-05
-0.00178751 0.00107558 1e-05
-0.00161577 0.00107693 1e-05
-0.0014509 0.00107823 1e-05
-0.00128603 0.00107957 1e-05
-0.00112116 0.00108094 1e-05
-0.000956291 0.00108233 1e-05
-0.000791418 0.00108376 1e-05
-0.000633135 0.00108514 1e-05
-0.000474851 0.00108656 1e-05
-0.000316568 0.00108801 1e-05
-0.000158285 0.00108948 1e-05
0 0.00109097 1e-05
0.000105677 0.00109198 1e-05
0.000211355 0.00109301 1e-05
0.000317032 0.00109406 1e-05
0.000422709 0.00109513 1e-05
0.000528387 0.00109621 1e-05
0.000634886 0.0010973 1e-05
0.000741385 0.00109844 1e-05
0.000847883 0.0010996 1e-05
0.000954382 0.00110078 1e-05
0.00106088 0.00110199 1e-05
0.00116821 0.00110321 1e-05
0.00127554 0.00110448 1e-05
0.00138286 0.00110578 1e-05
0.00149019 0.0011071 1e-05
0.00159752 0.00110846 1e-05
0.00170568 0.00110983 1e-05
0.00181384 0.00111125 1e-05
0.001922 0.00111272 1e-05
0.00203016 0.00111421 1e-05
0.00213833 0.00111574 1e-05
0.00224733 0.00111728 1e-05
0.00235633 0.00111889 1e-05
0.00246533 0.00112054 1e-05
0.00257433 0.00112222 1e-05
0.00268334 0.00112395 1e-05
0.00279319 0.00112569 1e-05
0.00290304 0.0011275 1e-05
0.00301288 0.00112936 1e-05
0.00312273 0.00113126 1e-05
0.00323259 0.0011332 1e-05
0.00334329 0.00113516 1e-05
0.00345399 0.00113719 1e-05
0.0035647 0.00113927 1e-05
0.0036754 0.00114139 1e-05
0.00378611 0.00114356 1e-05
0.00389767 0.00114574 1e-05
0.00400923 0.001148 1e-05
0.0041208 0.00115031 1e-05
0.00423236 0.00115266 1e-05
0.00434393 0.00115505 1e-05
0.00445636 0.00115746 1e-05
0.00456879 0.00115995 1e-05
0.00468122 0.00116247 1e-05
0.00479365 0.00116505 1e-05
0.00490609 0.00116766 1e-05
0.0050194 0.00117029 1e-05
0.0051327 0.001173 1e-05
0.005246 0.00117575 1e-05
0.00535931 0.00117853 1e-05
0.00547262 0.00118136 1e-05
0.00558681 0.0011842 1e-05
0.00570099 0.00118712 1e-05
0.00581518 0.00119007 1e-05
0.00592936 0.00119307 1e-05
0.00604356 0.00119609 1e-05
0.00615863 0.00119914 1e-05
0.0062737 0.00120225 1e-05
0.00638878 0.00120541 1e-05
0.00650385 0.0012086 1e-05
0.00661893 0.00121182 1e-05
0.0067349 0.00121505 1e-05
0.00685087 0.00121835 1e-05
0.00696683 0.0012217 1e-05
0.0070828 0.00122507 1e-05
0.00719878 0.00122846 1e-05
0.00731565 0.00123187 1e-05
0.00743252 0.00123535 1e-05
0.00754939 0.00123887 1e-05
0.00766625 0.00124242 1e-05
0.00778313 0.00124597 1e-05
0.00790091 0.00124954 1e-05
0.00801869 0.00125317 1e-05
0.00813647 0.00125686 1e-05
0.00825424 0.00126056 1e-05
0.00837203 0.00126427 1e-05
0.00849073 0.00126799 1e-05
0.00860942 0.00127176 1e-05
0.00872811 0.00127559 1e-05
0.00884681 0.00127945 1e-05
0.00896551 0.00128328 1e-05
0.00908513 0.00128713 1e-05
0.00920475 0.00129104 1e-05
0.00932436 0.00129501 1e-05
0.00944397 0.00129899 1e-05
0.0095636 0.00130295 1e-05
0.00968415 0.00130691 1e-05
0.0098047 0.00131093 1e-05
0.00992524 0.00131501 1e-05
0.0100458 0.0013191 1e-05
0.0101663 0.00132316 1e-05
0.0102878 0.00132723 1e-05
0.0104093 0.00133135 1e-05
0.0105308 0.00133552 1e-05
0.0106523 0.0013397 1e-05
0.0107738 0.00134385 1e-05
0.0108962 0.00134801 1e-05
0.0110186 0.00135221 1e-05
0.0111411 0.00135646 1e-05
0.0112635 0.00136072 1e-05
0.0113859 0.00136495 1e-05
0.0115093 0.00136917 1e-05
0.0116327 0.00137344 1e-05
0.0117561 0.00137775 1e-05
0.0118794 0.00138207 1e-05
0.0120028 0.00138635 1e-05
0.0121272 0.00139063 1e-05
0.0122515 0.00139495 1e-05
0.0123759 0.00139931 1e-05
0.0125002 0.00140367 1e-05
0.0126245 0.00140799 1e-05
0.0127498 0.00141231 1e-05
0.0128752 0.00141666 1e-05
0.0130005 0.00142104 1e-05
0.0131258 0.00142543 1e-05
0.0132511 0.00142977 1e-05
0.0133774 0.00143411 1e-05
0.0135036 0.00143848 1e-05
0.0136299 0.00144287 1e-05
0.0137562 0.00144725 1e-05
0.0138825 0.0014516 1e-05
0.0140098 0.00145595 1e-05
0.014137 0.00146032 1e-05
0.0142643 0.00146469 1e-05
0.0143915 0.00146906 1e-05
0.0145188 0.0014734 1e-05
0.0146471 0.00147773 1e-05
0.0147753 0.00148208 1e-05
0.0149036 0.00148643 1e-05
0.0150318 0.00149076 1e-05
0.0151601 0.00149507 1e-05
0.0152893 0.00149937 1e-05
0.0154186 0.00150368 1e-05
0.0155478 0.00150798 1e-05
0.0156771 0.00151226 1e-05
0.0158063 0.00151652 1e-05
0.0159366 0.00152077 1e-05
0.0160668 0.00152503 1e-05
0.0161971 0.00152926 1e-05
0.0163274 0.00153347 1e-05
0.0164576 0.00153766 1e-05
0.0165889 0.00154185 1e-05
0.0167201 0.00154602 1e-05
0.0168514 0.00155017 1e-05
0.0169827 0.00155429 1e-05
0.0171139 0.00155839 1e-05
0.0172462 0.00156248 1e-05
0.0173785 0.00156656 1e-05
0.0175108 0.0015706 1e-05
0.0176431 0.00157462 1e-05
0.0177754 0.0015786 1e-05
0.0179087 0.00158258 1e-05
0.018042 0.00158654 1e-05
0.0181753 0.00159046 1e-05
0.0183087 0.00159434 1e-05
0.018442 0.0015982 1e-05
0.0185763 0.00160204 1e-05
0.0187107 0.00160585 1e-05
0.018845 0.00160962 1e-05
0.0189794 0.00161336 1e-05
0.0191137 0.00161705 1e-05
0.0192491 0.00162074 1e-05
0.0193845 0.00162438 1e-05
0.0195199 0.00162799 1e-05
0.0196553 0.00163154 1e-05
0.0197907 0.00163506 1e-05
0.0199272 0.00163856 1e-05
0.0200636 0.00164201 1e-05
0.0202001 0.00164542 1e-05
0.0203365 0.00164878 1e-05
0.020473 0.00165209 1e-05
0.0206105 0.00165538 1e-05
0.020748 0.00165862 1e-05
0.0208855 0.0016618 1e-05
0.021023 0.00166493 1e-05
0.0211606 0.00166801 1e-05
0.0212991 0.00167106 1e-05
0.0214377 0.00167405 1e-05
0.0215763 0.00167698 1e-05
0.0217149 0.00167986 1e-05
0.0218535 0.00168267 1e-05
0.0219931 0.00168545 1e-05
0.0221328 0.00168817 1e-05
0.0222724 0.00169082 1e-05
0.0224121 0.00169341 1e-05
0.0225517 0.00169593 1e-05
0.0226049 0.00169687 1e-05
0.0226581 0.0016978 1e-05
0.0227114 0.00169871 1e-05
0.0227646 0.00169962 1e-05
0.0228339 0.00170079 1e-05
0.0229182 0.00170219 1e-05
0.0230025 0.00170356 1e-05
0.0230869 0.00170491 1e-05
0.0231712 0.00170623 1e-05
0.0232555 0.00170753 1e-05
0.0233973 0.00170967 1e-05
0.0235391 0.00171173 1e-05
0.023681 0.00171371 1e-05
0.0238228 0.00171561 1e-05
0.0239647 0.00171743 1e-05
0.0241076 0.00171919 1e-05
0.0242505 0.00172086 1e-05
0.0243935 0.00172244 1e-05
0.0245364 0.00172393 1e-05
0.0246794 0.00172533 1e-05
0.0248234 0.00172666 1e-05
0.0249675 0.00172788 1e-05
0.0251115 0.00172901 1e-05
0.0252556 0.00173004 1e-05
0.0253996 0.00173097 1e-05
0.0255274 0.00173171 1e-05
0.0256552 0.00173237 1e-05
0.0257829 0.00173295 1e-05
0.0259107 0.00173344 1e-05
0.0259264 0.00173349 1e-05
0.0259663 0.00173361 1e-05
0.0260061 0.00173373 1e-05
0.0260459 0.00173384 1e-05
0.0260857 0.00173394 1e-05
0.0261255 0.00173403 1e-05
0.0262718 0.00173434 1e-05
0.0264181 0.00173453 1e-05
0.0265644 0.0017346 1e-05
0.0267107 0.00173456 1e-05
0.026857 0.00173441 1e-05
0.0270044 0.00173413 1e-05
0.0271519 0.00173373 1e-05
0.0272993 0.00173321 1e-05
0.0274467 0.00173255 1e-05
0.0275942 0.00173177 1e-05
0.0277428 0.00173087 1e-05
0.0278914 0.00172982 1e-05
0.0280399 0.00172864 1e-05
0.0281885 0.00172731 1e-05
0.0283371 0.00172585 1e-05
0.0284869 0.00172425 1e-05
0.0286366 0.0017225 1e-05
0.0287863 0.0017206 1e-05
0.0289361 0.00171855 1e-05
0.0290858 0.00171634 1e-05
0.0292367 0.00171399 1e-05
0.0293876 0.00171147 1e-05
0.0295385 0.00170878 1e-05
0.0296894 0.00170594 1e-05
0.0298403 0.00170293 1e-05
0.0299924 0.00169975 1e-05
0.0301445 0.00169639 1e-05
0.0302966 0.00169285 1e-05
0.0304486 0.00168913 1e-05
0.0306007 0.00168524 1e-05
0.030754 0.00168117 1e-05
0.0309072 0.00167689 1e-05
0.0310605 0.00167242 1e-05
0.0312137 0.00166776 1e-05
0.031367 0.00166291 1e-05
0.0315215 0.00165786 1e-05
0.0316759 0.00165259 1e-05
0.0318304 0.0016471 1e-05
0.0319848 0.0016414 1e-05
0.0321393 0.00163551 1e-05
0.0322949 0.00162939 1e-05
0.0324506 0.00162302 1e-05
0.0326062 0.00161642 1e-05
0.0327618 0.00160959 1e-05
0.0329175 0.00160255 1e-05
[...]
POINT_DATA 11935
 FIELD attributes 1
U 3 11935 float
9.99909 	0.00341178 	0 9.99869 	0.00868284 	0 9.99899 	0.0125245 	0 9.99928 	0.0163562 	0 9.99958 	0.0201779 	0 10.0026 	0.0410865 	0 10.0029 	0.0145458 	0 10.0055 	0.0137495 	0 10.0082 	0.0129498 	0 10.0108 	0.0121467 	0 10.0139 	0.0319044 	0 10.0162 	0.00876433 	0 10.0185 	0.00931809 	0 10.0208 	0.00987559 	0 10.0231 	0.0104369 	0 10.0231 	0.0295619 	0 10.026 	0.0128653 	0 10.027 	0.0146055 	0 10.0281 	0.016357 	0 10.0291 	0.0181198 	0 10.0263 	0.0342238 	0 10.0303 	0.0222645 	0 10.0307 	0.0239754 	0 10.0311 	0.0256961 	0 10.0316 	0.0274266 	0 10.027 	0.0394926 	0 10.0316 	0.0312853 	0 10.0315 	0.0326951 	0 10.0315 	0.0341119 	0 10.0314 	0.0355355 	0 10.0258 	0.0439465 	0 10.0304 	0.0387366 	0 10.0299 	0.0398893 	0 10.0294 	0.0410466 	0 10.0289 	0.0422086 	0 10.0231 	0.0477203 	0 10.0271 	0.0447687 	0 10.0262 	0.045716 	0 10.0253 	0.0466665 	0 10.0244 	0.04762 	0 10.0193 	0.0509619 	0 10.022 	0.0496297 	0 10.0208 	0.050416 	0 10.0196 	0.0512043 	0 10.0183 	0.0519948 	0 10.0146 	0.0537875 	0 10.0155 	0.053576 	0 10.014 	0.0542472 	0 10.0125 	0.0549198 	0 10.011 	0.055594 	0 10.0092 	0.0563379 	0 10.0093 	0.0563352 	0 10.0091 	0.0563926 	0 10.009 	0.0564499 	0 10.0088 	0.0565073 	0 10.0086 	0.0565643 	0 10.007 	0.0571014 	0 10.0054 	0.0576392 	0 10.0038 	0.0581778 	0 10.0022 	0.0587172 	0 10.0002 	0.0589591 	0 9.99867 	0.0597686 	0 9.99661 	0.0603418 	0 9.99455 	0.0609158 	0 9.9925 	0.0614906 	0 9.98958 	0.0615383 	0 9.98845 	0.0625691 	0 9.9861 	0.0631747 	0 9.98376 	0.0637809 	0 9.98142 	0.0643878 	0 9.97756 	0.064321 	0 9.97698 	0.0655826 	0 9.97431 	0.0662909 	0 9.97165 	0.0669999 	0 9.969 	0.0677096 	0 9.96404 	0.0676631 	0 9.96413 	0.0692127 	0 9.96114 	0.0701316 	0 9.95814 	0.0710513 	0 9.95515 	0.0719718 	0 9.94893 	0.0721013 	0 9.94992 	0.074048 	0 9.94665 	0.0753322 	0 9.94338 	0.0766173 	0 9.94012 	0.0779033 	0 9.93254 	0.0783887 	0 9.93469 	0.0807655 	0 9.93112 	0.0824216 	0 9.92757 	0.0840787 	0 9.92402 	0.0857369 	0 9.91484 	0.086546 	0 9.91879 	0.0890688 	0 9.91579 	0.0905802 	0 9.91281 	0.0920927 	0 9.90983 	0.0936062 	0 9.89989 	0.0941261 	0 9.90604 	0.0968458 	-1.13595e-21 9.90344 	0.0983304 	-4.0012e-21 9.90084 	0.0998159 	-6.8659e-21 9.89826 	0.101302 	-9.73004e-21 9.88761 	0.101769 	-1.29096e-20 9.89441 	0.105572 	-2.5071e-20 9.89181 	0.10767 	-2.51424e-20 9.88922 	0.109768 	-2.52185e-20 9.88664 	0.111869 	-2.52992e-20 9.87538 	0.11238 	-1.13815e-20 9.88323 	0.117085 	-1.13389e-20 9.88077 	0.119563 	-1.28394e-20 9.87833 	0.122044 	-1.43375e-20 9.8759 	0.124526 	-1.58332e-20 9.86382 	0.124817 	-1.79358e-20 9.87287 	0.130405 	-3.12614e-20 9.8704 	0.133338 	-3.13662e-20 9.86795 	0.136274 	-3.14762e-20 9.86551 	0.139213 	-3.15916e-20 9.85227 	0.139351 	-1.94561e-20 9.8628 	0.145742 	-1.41883e-20 9.86027 	0.149126 	-8.17178e-21 9.85777 	0.152513 	-2.15399e-21 9.85529 	0.155903 	3.86504e-21 9.84056 	0.155926 	1.02124e-20 9.85309 	0.162888 	4.95105e-21 9.85054 	0.166556 	2.87088e-21 9.84801 	0.170227 	7.90211e-22 9.8455 	0.173901 	-1.29095e-21 9.82883 	0.173759 	3.846e-21 9.84406 	0.181054 	1.58005e-20 9.84143 	0.184821 	1.68942e-20 9.83883 	0.188591 	1.7999e-20 9.83625 	0.192364 	1.91148e-20 9.81697 	0.192002 	2.08105e-21 9.83574 	0.199464 	4.01783e-20 9.83294 	0.20318 	4.29356e-20 9.83018 	0.206899 	4.5714e-20 9.82744 	0.210621 	4.85136e-20 9.80465 	0.209977 	3.32036e-21 9.82802 	0.217526 	7.24476e-21 9.82496 	0.221081 	4.83156e-21 9.82193 	0.224639 	2.41724e-21 9.81894 	0.2282 	1.79922e-24 9.7915 	0.227196 	-5.19184e-21 9.8196 	0.23468 	-1.87803e-22 9.81738 	0.238159 	3.37169e-21 9.81401 	0.241484 	6.87326e-21 9.80801 	0.244388 	1.01277e-20 9.77724 	0.243344 	1.10972e-20 9.80888 	0.25055 	1.06333e-20 9.81019 	0.254195 	7.36114e-21 9.80641 	0.257242 	3.61445e-21 9.79634 	0.259421 	4.75482e-22 9.76173 	0.258226 	-3.06306e-22 9.79726 	0.265208 	-9.77957e-22 9.80347 	0.269061 	-3.73511e-21 9.79927 	0.271803 	-7.23393e-21 9.78387 	0.273188 	-9.67711e-21 9.74495 	0.271724 	-9.90866e-21 9.78467 	0.278543 	-8.66065e-21 9.7974 	0.282686 	-3.62232e-21 9.79276 	0.285109 	3.85331e-21 9.77064 	0.285617 	6.9254e-21 9.72705 	0.283776 	4.60327e-21 9.77114 	0.290488 	6.4114e-21 9.79216 	0.295034 	8.79623e-21 9.78714 	0.297135 	1.18349e-20 9.75676 	0.296665 	1.57023e-20 9.7083 	0.294364 	2.01625e-20 9.7568 	0.301007 	4.27014e-20 9.78798 	0.306085 	5.69329e-20 9.78265 	0.307868 	5.36836e-20 9.74245 	0.306315 	3.77606e-20 9.68906 	0.303499 	1.70436e-20 9.74186 	0.310089 	1.0208e-20 9.785 	0.315829 	2.82281e-21 9.77944 	0.317304 	-7.31962e-21 9.72794 	0.314565 	-1.88703e-20 9.66978 	0.311214 	-3.06262e-20 9.7266 	0.317741 	-1.0928e-19 9.78326 	0.324252 	-1.87666e-19 9.77604 	0.325295 	-1.881e-19 9.71349 	0.321424 	-1.09241e-19 9.65091 	0.317551 	-3.03725e-20 9.7113 	0.323983 	-1.84987e-20 9.77176 	0.330419 	-6.62382e-21 9.76575 	0.331261 	0 9.69933 	0.326908 	0 9.63286 	0.322553 	0 9.69623 	0.328838 	0 9.75967 	0.335127 	0 9.75525 	0.335802 	-1.55094e-21 9.68565 	0.331033 	-2.36307e-21 9.61599 	0.326262 	-3.17773e-21 9.68162 	0.332332 	-3.56813e-20 9.74732 	0.338405 	-6.81804e-20 9.74455 	0.338918 	-7.20539e-20 9.6726 	0.333817 	-4.69287e-20 9.60059 	0.328713 	-2.1801e-20 9.66766 	0.33449 	-1.31065e-20 9.73481 	0.34027 	-4.41229e-21 9.73366 	0.340613 	-5.43273e-21 9.66028 	0.335274 	-1.34356e-20 9.58683 	0.329932 	-2.14362e-20 9.65449 	0.335334 	-1.39824e-20 9.72221 	0.340738 	-6.53203e-21 9.72257 	0.340895 	-1.36749e-20 9.64873 	0.335416 	-3.69418e-20 9.57482 	0.329935 	-6.02081e-20 9.64219 	0.334879 	-1.51583e-19 9.7084 	0.339734 	-2.41297e-19 9.70722 	0.339474 	-2.38382e-19 9.63795 	0.334249 	-1.52329e-19 9.56455 	0.328723 	-6.13081e-20 9.63077 	0.333133 	-3.84066e-20 9.68444 	0.336622 	-1.54716e-20 9.68309 	0.336081 	7.61618e-21 9.62787 	0.33177 	2.01056e-20 9.55592 	0.326288 	2.93112e-20 9.62021 	0.330098 	2.0736e-20 9.66127 	0.332271 	1.20634e-20 9.6598 	0.331452 	3.21007e-21 9.61844 	0.327974 	-6.12827e-22 9.54879 	0.322612 	-8.73527e-22 9.61046 	0.325766 	-6.30504e-22 9.63935 	0.326717 	-4.56494e-21 9.63781 	0.325623 	-1.23735e-20 9.60958 	0.322851 	-1.59824e-20 9.54299 	0.31767 	-1.35555e-20 9.60146 	0.320126 	7.02484e-20 9.61906 	0.31998 	9.53429e-20 9.61749 	0.318613 	9.29236e-20 9.60121 	0.316386 	7.35228e-20 9.53832 	0.311427 	1.63321e-22 9.59312 	0.313157 	7.43868e-20 9.60067 	0.312062 	8.22846e-20 9.5991 	0.310424 	7.74569e-20 9.59328 	0.308557 	6.64758e-20 9.53457 	0.303847 	-2.18309e-20 9.58537 	0.304836 	-2.52675e-20 9.58431 	0.30295 	-1.87439e-20 9.58279 	0.301039 	-1.21365e-20 9.58123 	0.299127 	-5.52617e-21 9.53153 	0.29489 	-1.08261e-20 9.57145 	0.294797 	-8.59428e-20 9.57006 	0.292613 	-7.20815e-20 9.56861 	0.290427 	-5.82533e-20 9.56711 	0.288239 	-4.44583e-20 9.52902 	0.284512 	3.58477e-20 9.55915 	0.28347 	3.04786e-20 9.55786 	0.281006 	2.11991e-20 9.55651 	0.27854 	1.19163e-20 9.5551 	0.276071 	2.63009e-21 9.52687 	0.272665 	-1.0446e-21 9.54876 	0.27082 	-5.53495e-21 9.5476 	0.26807 	-1.67499e-20 9.54636 	0.265316 	-2.79602e-20 9.54505 	0.26256 	-3.9166e-20 9.52494 	0.2593 	-5.0492e-20 9.54013 	0.256784 	-4.6039e-20 9.5391 	0.253737 	-4.71225e-20 9.53798 	0.250687 	-4.81955e-20 9.53679 	0.247634 	-4.92581e-20 9.52311 	0.244364 	-5.43211e-20 9.53304 	0.241284 	-5.20448e-20 9.53214 	0.237929 	-5.46777e-20 9.53116 	0.234571 	-5.72976e-20 9.53007 	0.23121 	-5.99046e-20 9.52131 	0.227798 	-6.29896e-20 9.52726 	0.224237 	-7.93062e-20 9.52651 	0.220559 	-6.56071e-20 9.52564 	0.216878 	-5.19615e-20 9.52466 	0.213193 	-3.83693e-20 9.51946 	0.209533 	-8.94081e-21 9.52258 	0.205547 	-7.33344e-21 9.52194 	0.201527 	-5.4629e-21 9.52119 	0.197504 	-3.59118e-21 9.52032 	0.193477 	-1.71826e-21 9.51754 	0.189486 	-6.61526e-22 9.51876 	0.1851 	1.62267e-21 9.51825 	0.180712 	3.38638e-21 9.5176 	0.176321 	5.14892e-21 9.51682 	0.171926 	6.9103e-21 9.51555 	0.167542 	8.95851e-21 9.51578 	0.165724 	5.53078e-21 9.51566 	0.163909 	-1.49809e-22 9.51552 	0.162093 	-5.81677e-21 9.51536 	0.160277 	-1.14701e-20 9.51512 	0.157908 	-1.88252e-20 9.51472 	0.155028 	-2.75201e-20 9.51426 	0.152147 	-3.61915e-20 9.51375 	0.149264 	-4.48394e-20 9.51319 	0.146381 	-5.34638e-20 9.51144 	0.14343 	-6.07876e-20 9.51242 	0.138178 	-6.57465e-20 9.51208 	0.132871 	-6.96995e-20 9.51159 	0.12756 	-7.35909e-20 9.51095 	0.122245 	-7.74206e-20 9.50786 	0.116803 	-7.6805e-20 9.51026 	0.111012 	-5.76287e-20 9.51018 	0.105126 	-4.35995e-20 9.50992 	0.0992374 	-2.96787e-20 9.50948 	0.0933451 	-1.58664e-20 9.50646 	0.0873354 	-7.59852e-21 9.50902 	0.0809559 	-4.89168e-21 9.50901 	0.0744956 	-1.43231e-21 9.50881 	0.0680321 	2.02719e-21 9.50842 	0.0615656 	5.48682e-21 9.5064 	0.055039 	7.78059e-21 9.50789 	0.0489104 	2.59908e-21 9.50783 	0.0427438 	-3.67972e-22 9.50761 	0.0365752 	-3.24583e-21 9.50724 	0.0304047 	-6.03446e-21 9.50717 	0.0296449 	-6.3667e-21 9.50695 	0.0277227 	-7.13578e-21 9.50672 	0.0258004 	-7.89434e-21 9.50647 	0.0238778 	-8.64238e-21 9.5062 	0.0219551 	-9.37989e-21 9.50582 	0.0200605 	-1.22316e-20 9.50581 	0.0124901 	-2.07804e-20 9.50543 	0.00493393 	-2.56829e-20 9.5048 	-0.0026237 	-3.08842e-20 9.50394 	-0.0101828 	-3.63844e-20 9.50241 	-0.0175734 	-2.10142e-20 9.5028 	-0.0258087 	-3.71681e-22 9.50219 	-0.0339496 	1.96357e-20 9.50133 	-0.0420911 	3.96268e-20 9.50022 	-0.050233 	5.96014e-20 9.49811 	-0.0579976 	7.66816e-20 9.49907 	-0.0669761 	1.03863e-19 9.4982 	-0.0757421 	1.06464e-19 9.49706 	-0.0845073 	1.09202e-19 9.49565 	-0.0932718 	1.12077e-19 9.49289 	-0.101384 	7.28398e-20 9.49467 	-0.111193 	5.15912e-20 9.49349 	-0.120631 	2.24853e-20 9.49202 	-0.130066 	-6.62606e-21 9.49026 	-0.1395 	-3.57428e-20 9.48669 	-0.14794 	-4.35992e-20 9.48969 	-0.15868 	2.94045e-20 9.48813 	-0.168843 	5.1403e-20 9.48627 	-0.179002 	7.36271e-20 9.4841 	-0.189157 	9.60768e-20 9.47946 	-0.197915 	3.28957e-20 9.48422 	-0.209705 	1.11005e-19 9.48221 	-0.220654 	1.02475e-19 9.47988 	-0.231597 	9.41928e-20 9.47722 	-0.242535 	8.61598e-20 9.47109 	-0.251609 	-4.89747e-20 9.47796 	-0.264544 	-3.51843e-20 9.47581 	-0.276399 	-8.13083e-21 9.47291 	-0.288196 	1.95408e-20 9.46886 	-0.299569 	4.42484e-20 9.46145 	-0.309378 	5.79232e-20 9.4685 	-0.323304 	1.72327e-19 9.46905 	-0.33649 	2.36676e-19 9.46547 	-0.349219 	2.70423e-19 9.45917 	-0.360902 	2.38887e-19 9.45041 	-0.371651 	1.48701e-19 9.45763 	-0.386685 	1.01583e-19 9.46203 	-0.401425 	6.0026e-20 9.45763 	-0.415173 	3.82134e-20 9.44818 	-0.427173 	7.42541e-20 9.43778 	-0.438942 	1.17773e-19 9.44509 	-0.455219 	1.96887e-19 9.45196 	-0.471477 	2.75959e-19 9.4477 	-0.486116 	2.83404e-19 9.43571 	-0.498999 	2.29257e-19 9.42336 	-0.511877 	1.75091e-19 9.43061 	-0.529546 	2.29301e-19 9.43741 	-0.547194 	2.83532e-19 9.43579 	-0.563051 	2.52776e-19 9.42155 	-0.577138 	1.10597e-19 9.40691 	-0.591221 	-3.15672e-20 9.41387 	-0.610444 	-1.25043e-19 9.4184 	-0.629174 	-2.02201e-19 9.41612 	-0.646357 	-2.26964e-19 9.40544 	-0.662523 	-2.16109e-19 9.38816 	-0.677917 	-1.77656e-19 9.39448 	-0.698866 	-1.97397e-19 9.39289 	-0.718204 	-1.87306e-19 9.38878 	-0.737081 	-1.68919e-19 9.38418 	-0.755928 	-1.50271e-19 9.36674 	-0.773134 	-8.31923e-20 9.36798 	-0.794504 	-5.16063e-20 9.36228 	-0.814603 	-3.9364e-20 9.35609 	-0.834671 	-2.7174e-20 9.3494 	-0.854708 	-1.50365e-20 9.34382 	-0.870271 	-5.6357e-21 9.34313 	-0.87181 	-4.31443e-21 9.34244 	-0.873348 	-2.99284e-21 9.34174 	-0.874886 	-1.67095e-21 9.34104 	-0.876423 	-3.48749e-22 9.34049 	-0.87792 	0 9.33169 	-0.900437 	-1.02e-20 9.32181 	-0.922808 	-2.12179e-20 9.31136 	-0.945134 	-3.21758e-20 9.30034 	-0.967418 	-4.30735e-20 9.28958 	-0.989071 	-4.60576e-20 9.28513 	-1.01538 	-3.6552e-20 9.27363 	-1.04022 	-3.03004e-20 9.25977 	-1.06462 	-2.48494e-20 9.24484 	-1.0884 	-2.34898e-20 9.22901 	-1.11189 	-2.42972e-20 9.22224 	-1.14089 	-1.41501e-20 9.21478 	-1.16983 	-3.88654e-21 9.20114 	-1.197 	-5.00913e-21 9.18003 	-1.22213 	-1.41998e-20 9.15824 	-1.24732 	-2.3462e-20 9.14817 	-1.2788 	-1.78614e-20 9.13514 	-1.3092 	-1.37076e-20 9.11932 	-1.33856 	-1.09127e-20 9.1028 	-1.36787 	-8.17665e-21 9.07696 	-1.39453 	3.04976e-21 9.07104 	-1.40796 	3.2042e-20 9.06268 	-1.42 	2.72312e-20 9.05401 	-1.43191 	1.93844e-20 9.04522 	-1.44381 	1.1441e-20 9.03713 	-1.45464 	4.11983e-21 9.02389 	-1.47252 	-2.23571e-21 9.01042 	-1.49038 	-8.73378e-21 8.9967 	-1.50823 	-1.53748e-20 8.9828 	-1.52583 	-1.4064e-20 8.96889 	-1.54248 	2.18084e-20 8.9505 	-1.57602 	1.46212e-20 8.92606 	-1.60631 	4.06272e-21 8.8973 	-1.63435 	-8.80667e-21 8.86618 	-1.65778 	-1.47586e-20 8.83425 	-1.68116 	-2.04148e-20 8.80913 	-1.7115 	-8.57792e-21 8.78232 	-1.73989 	0 8.75218 	-1.76322 	0 8.72148 	-1.78651 	0 8.68233 	-1.80498 	-4.18386e-21 8.6742 	-1.81094 	-1.21551e-21 8.66556 	-1.81602 	-3.72597e-23 8.65655 	-1.82049 	-1.0037e-22 8.64751 	-1.82496 	-1.63534e-22 8.63878 	-1.82927 	-2.24452e-22 8.61223 	-1.84534 	-3.05595e-22 8.58543 	-1.86144 	-3.85992e-22 8.55838 	-1.87755 	-4.65636e-22 8.52873 	-1.89116 	-2.0973e-21 8.49634 	-1.90233 	-5.28734e-21 8.46428 	-1.92364 	-2.60101e-20 8.43175 	-1.94495 	-4.67356e-20 8.39569 	-1.96332 	-4.55398e-20 8.35001 	-1.97679 	-2.39707e-20 8.30354 	-1.99033 	-2.08021e-21 8.28702 	-1.99863 	-1.8518e-21 8.26996 	-2.00642 	-2.08611e-22 8.25208 	-2.01341 	3.68438e-21 8.23414 	-2.0204 	7.58252e-21 8.21712 	-2.02701 	1.12698e-20 8.19731 	-2.03641 	1.8146e-20 8.17741 	-2.04583 	2.50432e-20 8.15741 	-2.05526 	3.19614e-20 8.13582 	-2.0636 	3.06184e-20 8.11264 	-2.07096 	2.14714e-20 8.08137 	-2.08897 	2.7937e-20 8.04977 	-2.10698 	3.43637e-20 8.01153 	-2.1218 	3.02332e-20 7.96883 	-2.13409 	1.65618e-20 7.92555 	-2.1465 	2.78434e-21 7.90414 	-2.15643 	-6.38906e-21 7.88163 	-2.16561 	-9.53058e-21 7.85749 	-2.17365 	-3.38432e-21 7.83324 	-2.18169 	2.78905e-21 7.81048 	-2.18922 	8.58316e-21 7.79652 	-2.19473 	1.14312e-20 7.78251 	-2.20025 	1.4286e-20 7.76847 	-2.20577 	1.71476e-20 7.75342 	-2.21047 	1.48331e-20 7.73762 	-2.21461 	8.86518e-21 7.7042 	-2.2288 	1.80833e-20 7.66934 	-2.2424 	2.5501e-20 7.63044 	-2.25375 	2.39648e-20 7.5883 	-2.26248 	6.79251e-21 7.5456 	-2.27131 	-1.05407e-20 7.52153 	-2.27897 	-1.17647e-20 7.49657 	-2.28593 	-1.20649e-20 7.46993 	-2.29151 	-1.05403e-20 7.44319 	-2.29709 	-9.026e-21 7.41791 	-2.30236 	-7.60964e-21 7.40538 	-2.30566 	-5.34863e-21 7.39283 	-2.30897 	-3.0859e-21 7.38025 	-2.31227 	-8.21425e-22 7.36671 	-2.31483 	1.83194e-21 7.35258 	-2.31697 	4.71542e-21 7.31752 	-2.32587 	1.79262e-21 7.281 	-2.33415 	0 7.24146 	-2.3408 	0 7.19853 	-2.34495 	0 7.15509 	-2.34917 	0 7.13132 	-2.35315 	0 7.10676 	-2.35659 	-1.2087e-23 7.08047 	-2.35878 	-5.2339e-23 7.05411 	-2.36098 	-9.26379e-23 7.02884 	-2.36309 	-1.31186e-22 7.01492 	-2.3648 	-1.38513e-22 7.00097 	-2.36652 	-1.45817e-22 6.987 	-2.36824 	-1.53099e-22 6.97196 	-2.36922 	6.02144e-22 6.95633 	-2.36982 	1.74377e-21 6.91985 	-2.37345 	-1.30164e-20 6.88272 	-2.37689 	-2.64142e-20 6.84199 	-2.37854 	-2.67134e-20 6.7982 	-2.37824 	-9.70021e-21 6.75395 	-2.37796 	7.42999e-21 6.73203 	-2.37871 	6.87771e-21 6.70944 	-2.37907 	6.9837e-21 6.68525 	-2.37843 	8.7783e-21 6.661 	-2.37779 	1.05774e-20 6.63747 	-2.37718 	1.23238e-20 6.62075 	-2.37717 	1.15135e-20 6.60401 	-2.37717 	1.07007e-20 6.58725 	-2.37717 	9.88549e-21 6.56922 	-2.3764 	1.02655e-20 6.55052 	-2.37525 	1.12171e-20 6.51316 	-2.3742 	2.84782e-20 6.47566 	-2.37316 	4.57228e-20 6.43437 	-2.37042 	4.24968e-20 6.39007 	-2.36609 	1.74462e-20 6.34536 	-2.36175 	-7.76073e-21 6.32595 	-2.36024 	-6.20637e-22 6.30597 	-2.35844 	3.1335e-21 6.28458 	-2.35588 	-2.0403e-21 6.26315 	-2.35331 	-7.2266e-21 6.24216 	-2.3508 	-1.23133e-20 6.22243 	-2.34873 	-1.49855e-20 6.20268 	-2.34665 	-1.76647e-20 6.18289 	-2.34458 	-2.0351e-20 6.16167 	-2.34172 	-1.66232e-20 6.13969 	-2.33847 	-9.79273e-21 6.10208 	-2.33341 	-5.88055e-21 6.06436 	-2.32837 	-1.97161e-21 6.02341 	-2.32194 	-2.25243e-21 5.97913 	-2.3141 	-6.7435e-21 5.93452 	-2.30624 	-1.12571e-20 5.9174 	-2.30329 	-1.38927e-20 5.89979 	-2.30011 	-1.56161e-20 5.88095 	-2.29634 	-1.50267e-20 5.8621 	-2.29257 	-1.44358e-20 5.84349 	-2.28885 	-1.38521e-20 5.82155 	-2.28457 	-1.55064e-20 5.79958 	-2.28029 	-1.71627e-20 5.77759 	-2.27601 	-1.88211e-20 5.75408 	-2.27096 	-1.49979e-20 5.72973 	-2.2655 	-8.35612e-21 5.69253 	-2.25716 	1.00474e-21 5.65525 	-2.24882 	1.037e-20 5.61508 	-2.23925 	1.33752e-20 5.57145 	-2.22847 	1.05191e-20 5.52757 	-2.21766 	7.6582e-21 5.51176 	-2.21365 	7.15311e-21 5.49547 	-2.20944 	6.95374e-21 5.47809 	-2.20473 	7.45699e-21 5.46069 	-2.20003 	7.96133e-21 5.44345 	-2.19537 	8.46201e-21 5.42096 	-2.18922 	7.28667e-21 5.39846 	-2.18307 	6.11099e-21 5.37593 	-2.17692 	4.93497e-21 5.35197 	-2.17006 	4.53507e-21 5.32714 	-2.16279 	4.57594e-21 5.29098 	-2.15185 	7.80948e-21 5.25476 	-2.14092 	1.10422e-20 5.21579 	-2.12886 	1.10313e-20 5.17349 	-2.11572 	8.26013e-21 5.13102 	-2.10255 	5.48081e-21 5.11487 	-2.09732 	9.65034e-21 5.09819 	-2.09186 	1.13558e-20 5.08047 	-2.08594 	8.15337e-21 5.06274 	-2.08003 	4.94932e-21 5.0451 	-2.07415 	1.76244e-21 5.02442 	-2.06705 	-2.36943e-21 5.00373 	-2.05994 	-6.50353e-21 4.98303 	-2.05284 	-1.06399e-20 4.95968 	-2.04516 	-6.29907e-21 4.93454 	-2.03711 	3.61861e-21 4.90155 	-2.02425 	2.44571e-20 4.86855 	-2.0114 	4.5295e-20 4.82971 	-1.99756 	4.54764e-20 4.78505 	-1.98273 	2.50512e-20 4.7403 	-1.96789 	4.61731e-21 4.72254 	-1.9607 	6.40438e-21 4.70327 	-1.95323 	7.25595e-21 4.68147 	-1.94531 	6.53936e-21 4.65965 	-1.93738 	5.82337e-21 4.63788 	-1.92948 	5.10984e-21 4.62266 	-1.92293 	3.18078e-21 4.60745 	-1.91638 	1.25175e-21 4.59223 	-1.90982 	-6.7723e-22 4.57647 	-1.90291 	-8.55974e-22 4.55973 	-1.89535 	2.09739e-21 4.53005 	-1.88171 	6.21999e-23 4.49843 	-1.86752 	3.91744e-21 4.46576 	-1.85302 	1.10098e-20 4.42986 	-1.83656 	2.50302e-20 4.39396 	-1.82008 	3.91782e-20 4.36506 	-1.8064 	1.12233e-19 4.33507 	-1.79209 	1.49592e-19 4.303 	-1.77661 	1.20204e-19 4.27098 	-1.76113 	9.08491e-20 4.23726 	-1.74521 	3.0417e-20 4.23152 	-1.74243 	6.41693e-21 4.22538 	-1.73944 	2.25557e-21 4.219 	-1.73633 	1.00441e-20 4.21262 	-1.73321 	1.78305e-20 4.20623 	-1.73009 	2.56327e-20 4.18141 	-1.71788 	5.39874e-20 4.15662 	-1.70567 	8.23078e-20 4.13186 	-1.69346 	1.10593e-19 4.10712 	-1.68084 	1.00754e-19 4.08246 	-1.66755 	2.72756e-20 4.05349 	-1.65305 	1.61078e-20 4.02457 	-1.63855 	4.92845e-21 3.99491 	-1.62316 	5.61582e-21 3.96474 	-1.60689 	1.76348e-20 3.93471 	-1.59065 	2.96187e-20 3.91103 	-1.57866 	2.50542e-20 3.88735 	-1.56611 	2.09494e-20 3.86371 	-1.55321 	1.71182e-20 3.84011 	-1.54031 	1.32792e-20 3.81619 	-1.5272 	9.36818e-21 3.81193 	-1.52484 	7.59143e-21 3.80767 	-1.52247 	5.81481e-21 3.80342 	-1.52011 	4.03834e-21 3.79919 	-1.51769 	2.95001e-21 3.79499 	-1.51516 	3.05451e-21 3.76825 	-1.5004 	6.24869e-20 3.7411 	-1.4854 	1.01114e-19 3.71404 	-1.4704 	1.39678e-19 3.68721 	-1.45487 	1.10457e-19 3.6607 	-1.43902 	3.23929e-20 3.63541 	-1.42496 	1.07967e-19 3.61021 	-1.41091 	1.83584e-19 3.58531 	-1.3961 	1.32061e-19 3.55999 	-1.381 	4.54889e-20 3.53441 	-1.36576 	-6.44318e-20 3.52181 	-1.35874 	-1.16532e-19 3.50928 	-1.35148 	-1.24493e-19 3.49682 	-1.3441 	-1.0785e-19 3.48438 	-1.33671 	-9.12284e-20 3.47178 	-1.32921 	-7.43639e-20 3.46029 	-1.32225 	-6.55005e-20 3.44882 	-1.3153 	-5.66456e-20 3.43738 	-1.30834 	-4.77993e-20 3.42605 	-1.30128 	-4.33091e-20 3.41492 	-1.29403 	-4.69821e-20 3.39242 	-1.28053 	7.94292e-20 3.36956 	-1.2668 	1.64224e-19 3.34648 	-1.25291 	2.20857e-19 3.32392 	-1.23846 	1.21502e-19 3.3016 	-1.22409 	2.14156e-20 3.27996 	-1.21115 	1.55771e-20 3.25854 	-1.19805 	1.34259e-20 3.23748 	-1.18463 	1.89589e-20 3.21654 	-1.17121 	2.44692e-20 3.19527 	-1.1576 	4.07204e-20 3.1897 	-1.15428 	6.70881e-20 3.1842 	-1.15089 	6.24275e-20 3.17872 	-1.14746 	4.31359e-20 3.17326 	-1.14404 	2.38584e-20 3.16775 	-1.14057 	4.38234e-21 3.15293 	-1.13108 	-4.43369e-20 3.13819 	-1.12159 	-9.29587e-20 3.12351 	-1.1121 	-1.41481e-19 3.10904 	-1.10254 	-1.55595e-19 3.09497 	-1.09283 	-9.41655e-20 3.07596 	-1.0808 	-5.5494e-20 3.05707 	-1.06877 	-1.68447e-20 3.03784 	-1.05633 	-3.99819e-21 3.01911 	-1.04366 	