# vtk DataFile Version 2.0
track0
ASCII
DATASET POLYDATA
POINTS 11915 float
-0.0205 0.001 1e-05
-0.0202034 0.0010001 1e-05
-0.0199069 0.00100035 1e-05
-0.0196103 0.00100072 1e-05
-0.0193137 0.0010012 1e-05
-0.0190172 0.00100178 1e-05
-0.0187132 0.00100302 1e-05
-0.0184093 0.00100345 1e-05
-0.0181054 0.00100385 1e-05
-0.0178015 0.00100422 1e-05
-0.0174976 0.00100457 1e-05
-0.0172058 0.00100548 1e-05
-0.016914 0.00100571 1e-05
-0.0166222 0.00100595 1e-05
-0.0163305 0.00100621 1e-05
-0.0160387 0.00100648 1e-05
-0.0157586 0.00100728 1e-05
-0.0154784 0.0010076 1e-05
-0.0151983 0.00100797 1e-05
-0.0149182 0.00100839 1e-05
-0.0146381 0.00100885 1e-05
-0.0143692 0.00100973 1e-05
-0.0141002 0.00101028 1e-05
-0.0138313 0.00101087 1e-05
-0.0135624 0.00101151 1e-05
-0.0132934 0.00101219 1e-05
-0.0130353 0.00101316 1e-05
-0.0127771 0.0010139 1e-05
-0.0125189 0.00101468 1e-05
-0.0122607 0.0010155 1e-05
-0.0120025 0.00101634 1e-05
-0.0117547 0.00101736 1e-05
-0.0115068 0.00101825 1e-05
-0.0112589 0.00101916 1e-05
-0.0110111 0.00102009 1e-05
-0.0107632 0.00102105 1e-05
-0.0105252 0.00102211 1e-05
-0.0102873 0.00102308 1e-05
-0.0100493 0.00102408 1e-05
-0.00981133 0.00102509 1e-05
-0.00957337 0.00102612 1e-05
-0.00934491 0.00102719 1e-05
-0.00911645 0.00102821 1e-05
-0.00888799 0.00102925 1e-05
-0.00865954 0.00103031 1e-05
-0.00843108 0.00103137 1e-05
-0.00821175 0.00103244 1e-05
-0.00799242 0.00103349 1e-05
-0.00777309 0.00103454 1e-05
-0.00755376 0.00103561 1e-05
-0.00733443 0.00103668 1e-05
-0.00719131 0.0010374 1e-05
-0.00704818 0.00103811 1e-05
-0.00690505 0.00103882 1e-05
-0.00676193 0.00103954 1e-05
-0.00661985 0.00104025 1e-05
-0.0065522 0.00104059 1e-05
-0.00648455 0.00104094 1e-05
-0.0064169 0.00104128 1e-05
-0.00634925 0.00104162 1e-05
-0.0062816 0.00104197 1e-05
-0.00607944 0.00104299 1e-05
-0.00587729 0.00104402 1e-05
-0.00567514 0.00104506 1e-05
-0.00547298 0.0010461 1e-05
-0.00527083 0.00104714 1e-05
-0.00507675 0.00104814 1e-05
-0.00488267 0.00104914 1e-05
-0.0046886 0.00105015 1e-05
-0.00449452 0.00105116 1e-05
-0.00430044 0.00105217 1e-05
-0.00411412 0.00105313 1e-05
-0.0039278 0.0010541 1e-05
-0.00374147 0.00105507 1e-05
-0.00355515 0.00105604 1e-05
-0.00336883 0.00105701 1e-05
-0.00318995 0.00105793 1e-05
-0.00301107 0.00105887 1e-05
-0.00283219 0.0010598 1e-05
-0.00265331 0.00106073 1e-05
-0.00247443 0.00106166 1e-05
-0.0023027 0.00106254 1e-05
-0.00213097 0.00106343 1e-05
-0.00195924 0.00106432 1e-05
-0.0017875 0.00106521 1e-05
-0.00161577 0.0010661 1e-05
-0.0014509 0.00106695 1e-05
-0.00128603 0.00106779 1e-05
-0.00112116 0.00106863 1e-05
-0.000956289 0.00106947 1e-05
-0.000791418 0.0010703 1e-05
-0.000633135 0.00107108 1e-05
-0.000474851 0.00107186 1e-05
-0.000316567 0.00107262 1e-05
-0.000158283 0.00107336 1e-05
0 0.00107409 1e-05
0.000105677 0.00107455 1e-05
0.000211355 0.00107501 1e-05
0.000317032 0.00107546 1e-05
0.00042271 0.0010759 1e-05
0.000528387 0.00107632 1e-05
0.000634886 0.00107672 1e-05
0.000741385 0.00107712 1e-05
0.000847885 0.00107751 1e-05
0.000954384 0.00107789 1e-05
0.00106088 0.00107825 1e-05
0.00116821 0.0010786 1e-05
0.00127554 0.00107895 1e-05
0.00138286 0.00107928 1e-05
0.00149019 0.0010796 1e-05
0.00159752 0.00107991 1e-05
0.00170568 0.0010802 1e-05
0.00181384 0.0010805 1e-05
0.001922 0.00108078 1e-05
0.00203016 0.00108105 1e-05
0.00213833 0.00108132 1e-05
0.00224733 0.00108156 1e-05
0.00235633 0.0010818 1e-05
0.00246533 0.00108204 1e-05
0.00257434 0.00108227 1e-05
0.00268334 0.0010825 1e-05
0.00279319 0.0010827 1e-05
0.00290304 0.00108291 1e-05
0.00301289 0.00108312 1e-05
0.00312274 0.00108331 1e-05
0.00323259 0.00108351 1e-05
0.00334329 0.00108368 1e-05
0.003454 0.00108386 1e-05
0.0035647 0.00108404 1e-05
0.0036754 0.00108421 1e-05
0.00378611 0.00108437 1e-05
0.00389767 0.00108453 1e-05
0.00400924 0.00108468 1e-05
0.0041208 0.00108483 1e-05
0.00423237 0.00108498 1e-05
0.00434393 0.00108512 1e-05
0.00445636 0.00108525 1e-05
0.00456879 0.00108538 1e-05
0.00468123 0.00108551 1e-05
0.00479366 0.00108563 1e-05
0.00490609 0.00108575 1e-05
0.0050194 0.00108586 1e-05
0.0051327 0.00108598 1e-05
0.00524601 0.00108608 1e-05
0.00535932 0.00108618 1e-05
0.00547262 0.00108628 1e-05
0.00553138 0.00108633 1e-05
0.00559014 0.00108637 1e-05
0.0056489 0.00108642 1e-05
0.00570766 0.00108646 1e-05
0.00576498 0.0010865 1e-05
0.00582069 0.00108654 1e-05
0.00587641 0.00108658 1e-05
0.00593212 0.00108662 1e-05
0.00598784 0.00108666 1e-05
0.00604356 0.00108669 1e-05
0.00615863 0.00108676 1e-05
0.00627371 0.00108683 1e-05
0.00638878 0.00108689 1e-05
0.00650386 0.00108694 1e-05
0.00661893 0.00108699 1e-05
0.0067349 0.00108704 1e-05
0.00685087 0.00108708 1e-05
0.00696684 0.00108712 1e-05
0.00708281 0.00108715 1e-05
0.00719878 0.00108718 1e-05
0.00731565 0.0010872 1e-05
0.00743252 0.00108721 1e-05
0.00754939 0.00108722 1e-05
0.00766626 0.00108723 1e-05
0.00778313 0.00108723 1e-05
0.00790091 0.00108722 1e-05
0.00801869 0.00108721 1e-05
0.00813647 0.00108719 1e-05
0.00825425 0.00108717 1e-05
0.00837203 0.00108714 1e-05
0.00849073 0.0010871 1e-05
0.00860942 0.00108706 1e-05
0.00872812 0.00108701 1e-05
0.00884682 0.00108696 1e-05
0.00896551 0.0010869 1e-05
0.00908513 0.00108683 1e-05
0.00920475 0.00108676 1e-05
0.00932437 0.00108668 1e-05
0.00944398 0.00108659 1e-05
0.0095636 0.0010865 1e-05
0.00968415 0.00108639 1e-05
0.0098047 0.00108628 1e-05
0.00992525 0.00108617 1e-05
0.0100458 0.00108605 1e-05
0.0101663 0.00108593 1e-05
0.0102878 0.00108578 1e-05
0.0104093 0.00108563 1e-05
0.0105308 0.00108549 1e-05
0.0106523 0.00108533 1e-05
0.0107738 0.00108517 1e-05
0.0108962 0.00108497 1e-05
0.0110186 0.00108479 1e-05
0.0111411 0.00108461 1e-05
0.0112635 0.00108441 1e-05
0.0113859 0.00108421 1e-05
0.0115093 0.00108397 1e-05
0.0116327 0.00108375 1e-05
0.0117561 0.00108352 1e-05
0.0118795 0.00108328 1e-05
0.0120028 0.00108304 1e-05
0.0121272 0.00108276 1e-05
0.0122515 0.00108249 1e-05
0.0123759 0.00108221 1e-05
0.0125002 0.00108193 1e-05
0.0126245 0.00108164 1e-05
0.0127498 0.00108131 1e-05
0.0128752 0.001081 1e-05
0.0130005 0.00108068 1e-05
0.0131258 0.00108035 1e-05
0.0132511 0.00108001 1e-05
0.0133774 0.00107964 1e-05
0.0135036 0.00107928 1e-05
0.0136299 0.0010789 1e-05
0.0137562 0.00107852 1e-05
0.0138825 0.00107814 1e-05
0.0140098 0.00107771 1e-05
0.014137 0.0010773 1e-05
0.0142643 0.00107687 1e-05
0.0143915 0.00107644 1e-05
0.0145188 0.001076 1e-05
0.0146471 0.00107552 1e-05
0.0147753 0.00107506 1e-05
0.0149036 0.00107458 1e-05
0.0150318 0.00107409 1e-05
0.0151601 0.0010736 1e-05
0.0152893 0.00107307 1e-05
0.0154186 0.00107254 1e-05
0.0155478 0.00107201 1e-05
0.0156771 0.00107146 1e-05
0.0158063 0.00107091 1e-05
0.0159366 0.00107032 1e-05
0.0160668 0.00106974 1e-05
0.0161971 0.00106915 1e-05
0.0163274 0.00106854 1e-05
0.0164576 0.00106793 1e-05
0.0165889 0.00106729 1e-05
0.0167201 0.00106664 1e-05
0.0168514 0.00106599 1e-05
0.0169827 0.00106532 1e-05
0.0171139 0.00106465 1e-05
0.0172462 0.00106395 1e-05
0.0173785 0.00106324 1e-05
0.0175108 0.00106252 1e-05
0.0176431 0.0010618 1e-05
0.0177754 0.00106106 1e-05
0.0179087 0.0010603 1e-05
0.018042 0.00105953 1e-05
0.0181753 0.00105875 1e-05
0.0183087 0.00105796 1e-05
0.018442 0.00105715 1e-05
0.0185763 0.00105633 1e-05
0.0187107 0.0010555 1e-05
0.018845 0.00105465 1e-05
0.0189794 0.00105379 1e-05
0.0191137 0.00105293 1e-05
0.0192491 0.00105205 1e-05
0.0193845 0.00105115 1e-05
0.0195199 0.00105023 1e-05
0.0196553 0.0010493 1e-05
0.0197907 0.00104837 1e-05
0.0199272 0.00104743 1e-05
0.0200636 0.00104646 1e-05
0.0202001 0.00104548 1e-05
0.0203365 0.00104448 1e-05
0.020473 0.00104348 1e-05
0.0206105 0.00104247 1e-05
0.020748 0.00104144 1e-05
0.0208855 0.00104038 1e-05
0.021023 0.00103931 1e-05
0.0211606 0.00103825 1e-05
0.0212991 0.00103718 1e-05
0.0214377 0.00103608 1e-05
0.0215763 0.00103495 1e-05
0.0217149 0.00103381 1e-05
0.0218535 0.00103267 1e-05
0.0219931 0.00103153 1e-05
0.0221328 0.00103037 1e-05
0.0222724 0.00102917 1e-05
0.0224121 0.00102796 1e-05
0.0225517 0.00102675 1e-05
0.0226925 0.00102555 1e-05
0.0228332 0.00102431 1e-05
0.022974 0.00102304 1e-05
0.0231147 0.00102176 1e-05
0.0232555 0.00102048 1e-05
0.0233973 0.00101921 1e-05
0.0235391 0.0010179 1e-05
0.023681 0.00101656 1e-05
0.0238228 0.0010152 1e-05
0.0239647 0.00101386 1e-05
0.0241076 0.00101252 1e-05
0.0242505 0.00101114 1e-05
0.0243935 0.00100972 1e-05
0.0245364 0.0010083 1e-05
0.0246794 0.00100688 1e-05
0.0248234 0.00100547 1e-05
0.0249675 0.00100401 1e-05
0.0251115 0.00100253 1e-05
0.0252556 0.00100103 1e-05
0.0253996 0.00099954 1e-05
0.0255448 0.000998053 1e-05
0.02569 0.000996529 1e-05
0.0258351 0.000994967 1e-05
0.0259803 0.000993393 1e-05
0.0261255 0.000991832 1e-05
0.0262718 0.000990272 1e-05
0.0264181 0.000988674 1e-05
0.0265644 0.000987036 1e-05
0.0267107 0.000985388 1e-05
0.026857 0.000983753 1e-05
0.0270044 0.000982118 1e-05
0.0271519 0.000980443 1e-05
0.0272993 0.000978733 1e-05
0.0274467 0.000977012 1e-05
0.0275942 0.0009753 1e-05
0.0277428 0.000973588 1e-05
0.0278914 0.000971837 1e-05
0.0280399 0.000970053 1e-05
0.0281885 0.000968259 1e-05
0.0283371 0.00096647 1e-05
0.0284869 0.00096468 1e-05
0.0286366 0.00096285 1e-05
0.0287863 0.000960992 1e-05
0.0289361 0.000959122 1e-05
0.0290858 0.000957254 1e-05
0.0292367 0.000955384 1e-05
0.0293876 0.000953474 1e-05
0.0295385 0.000951539 1e-05
0.0296894 0.000949592 1e-05
0.0298403 0.000947643 1e-05
0.0299924 0.000945691 1e-05
0.0301445 0.000943698 1e-05
0.0302966 0.000941685 1e-05
0.0304486 0.00093966 1e-05
0.0306007 0.000937627 1e-05
0.030754 0.00093559 1e-05
0.0309072 0.000933513 1e-05
0.0310605 0.000931419 1e-05
0.0312138 0.000929312 1e-05
0.031367 0.000927195 1e-05
0.0315215 0.00092507 1e-05
0.0316759 0.000922906 1e-05
0.0318304 0.000920728 1e-05
0.0319848 0.000918538 1e-05
0.0321393 0.000916335 1e-05
0.0322949 0.00091412 1e-05
0.0324506 0.00091187 1e-05
0.0326062 0.000909607 1e-05
0.0327619 0.000907329 1e-05
0.0329175 0.000905039 1e-05
0.0330744 0.000902731 1e-05
0.0332313 0.000900393 1e-05
0.0333881 0.00089804 1e-05
[...]
POINT_DATA 11915
 FIELD attributes 2
p 1 11915 float
-6.16138 -6.15373 -6.14571 -6.13766 -6.12957 -6.13007 -6.103 -6.1191 -6.13518 -6.15125 -6.21242 -6.21855 -6.25739 -6.29622 -6.33506 -6.39667 -6.39591 -6.42294 -6.44999 -6.47705 -6.52359 -6.52738 -6.55074 -6.57412 -6.59752 -6.63566 -6.64486 -6.6666 -6.68834 -6.7101 -6.74131 -6.7526 -6.77183 -6.79106 -6.8103 -6.83531 -6.84755 -6.86465 -6.88175 -6.89886 -6.91929 -6.93224 -6.94794 -6.96365 -6.97936 -6.99671 -7.01013 -7.02488 -7.03963 -7.05439 -7.06966 -7.0788 -7.08835 -7.0979 -7.10746 -7.11694 -7.12145 -7.12597 -7.13048 -7.13499 -7.13936 -7.15301 -7.16655 -7.18008 -7.19362 -7.20666 -7.22024 -7.23343 -7.24663 -7.25983 -7.27232 -7.28588 -7.2989 -7.31193 -7.32495 -7.33716 -7.35086 -7.36395 -7.37704 -7.39013 -7.40238 -7.41671 -7.43049 -7.44426 -7.45803 -7.47102 -7.48747 -7.50378 -7.52009 -7.5364 -7.55204 -7.57042 -7.58824 -7.60606 -7.62388 -7.64009 -7.65432 -7.66624 -7.67815 -7.69007 -7.69966 -7.70945 -7.71605 -7.72265 -7.72925 -7.73342 -7.74194 -7.74718 -7.75243 -7.75767 -7.76019 -7.76852 -7.77331 -7.77809 -7.78288 -7.78451 -7.79138 -7.79484 -7.7983 -7.80176 -7.80224 -7.80749 -7.80995 -7.81241 -7.81486 -7.81493 -7.81896 -7.82094 -7.82292 -7.8249 -7.82518 -7.82821 -7.82987 -7.83153 -7.83319 -7.83381 -7.83601 -7.8374 -7.8388 -7.84019 -7.84108 -7.84268 -7.84389 -7.84511 -7.84633 -7.84741 -7.84809 -7.84867 -7.84924 -7.84982 -7.85039 -7.85093 -7.85148 -7.85203 -7.85258 -7.85316 -7.85425 -7.85534 -7.85644 -7.85753 -7.85867 -7.8598 -7.86093 -7.86205 -7.86318 -7.86432 -7.86554 -7.86674 -7.86795 -7.86915 -7.87039 -7.87166 -7.87295 -7.87425 -7.87555 -7.87699 -7.87822 -7.87962 -7.88103 -7.88243 -7.88418 -7.88526 -7.88678 -7.88829 -7.88981 -7.89198 -7.89283 -7.89446 -7.89609 -7.89772 -7.90043 -7.90094 -7.90268 -7.90443 -7.90617 -7.9095 -7.90961 -7.91146 -7.91331 -7.91517 -7.91918 -7.91884 -7.9208 -7.92276 -7.92471 -7.92943 -7.92863 -7.93069 -7.93274 -7.9348 -7.94022 -7.93897 -7.94112 -7.94327 -7.94542 -7.95152 -7.94986 -7.95209 -7.95433 -7.95657 -7.96328 -7.96128 -7.9636 -7.96592 -7.96824 -7.97547 -7.97322 -7.97562 -7.97802 -7.98061 -7.98807 -7.986 -7.98815 -7.99062 -7.9937 -8.00105 -7.99931 -8.00115 -8.00369 -8.00722 -8.01436 -8.01301 -8.0146 -8.01721 -8.02113 -8.02798 -8.02707 -8.02846 -8.03114 -8.03537 -8.0419 -8.04146 -8.04274 -8.04549 -8.04996 -8.05612 -8.05617 -8.05741 -8.06023 -8.06484 -8.07063 -8.07116 -8.07244 -8.07532 -8.07999 -8.0854 -8.08638 -8.08777 -8.0907 -8.09536 -8.10039 -8.1018 -8.10335 -8.10633 -8.1109 -8.11558 -8.11738 -8.11918 -8.12224 -8.1266 -8.13096 -8.13311 -8.13526 -8.13836 -8.14243 -8.1465 -8.14896 -8.15142 -8.15456 -8.15838 -8.1622 -8.16492 -8.16765 -8.17082 -8.17443 -8.17803 -8.18098 -8.18392 -8.18711 -8.19055 -8.19398 -8.1971 -8.20022 -8.20343 -8.20673 -8.21002 -8.21327 -8.21653 -8.21975 -8.22293 -8.22612 -8.22946 -8.23281 -8.23603 -8.23914 -8.24224 -8.24564 -8.24903 -8.25224 -8.25531 -8.25836 -8.26179 -8.26516 -8.26837 -8.27144 -8.27446 -8.27789 -8.28124 -8.28444 -8.28753 -8.29053 -8.29395 -8.29724 -8.30044 -8.30354 -8.30653 -8.30992 -8.31316 -8.31633 -8.31946 -8.32244 -8.32577 -8.32895 -8.3321 -8.33523 -8.33821 -8.34148 -8.3446 -8.34771 -8.35083 -8.35382 -8.357 -8.36008 -8.36315 -8.36623 -8.36922 -8.37232 -8.37535 -8.37838 -8.38141 -8.38439 -8.3874 -8.39037 -8.39335 -8.39633 -8.39928 -8.4022 -8.40512 -8.40803 -8.41095 -8.41385 -8.4163 -8.41874 -8.42118 -8.42362 -8.42596 -8.42639 -8.42681 -8.42724 -8.42766 -8.42809 -8.43087 -8.43366 -8.43645 -8.43924 -8.44204 -8.44474 -8.44745 -8.45015 -8.45286 -8.45558 -8.45821 -8.46082 -8.46344 -8.46606 -8.46868 -8.47123 -8.47374 -8.47626 -8.47877 -8.48128 -8.48375 -8.48615 -8.48855 -8.49095 -8.49333 -8.4957 -8.49799 -8.50027 -8.50253 -8.50477 -8.50702 -8.5092 -8.51134 -8.51346 -8.51554 -8.51766 -8.51973 -8.52172 -8.52366 -8.52558 -8.52755 -8.52952 -8.53135 -8.53309 -8.53483 -8.53666 -8.53849 -8.54015 -8.5417 -8.54325 -8.54491 -8.54658 -8.54808 -8.54942 -8.55077 -8.55225 -8.55373 -8.55505 -8.55617 -8.55729 -8.55857 -8.55985 -8.56098 -8.56185 -8.56273 -8.56378 -8.56481 -8.56568 -8.56636 -8.56696 -8.56777 -8.56849 -8.5691 -8.56958 -8.56988 -8.57042 -8.57079 -8.5711 -8.57138 -8.57135 -8.57159 -8.57157 -8.57155 -8.57154 -8.57123 -8.57106 -8.57067 -8.57029 -8.56991 -8.56935 -8.56869 -8.5679 -8.56712 -8.56633 -8.5655 -8.56513 -8.56472 -8.56431 -8.5639 -8.56349 -8.56271 -8.56192 -8.56113 -8.56035 -8.55957 -8.55793 -8.55624 -8.55457 -8.5529 -8.55121 -8.54909 -8.54685 -8.54461 -8.54237 -8.54006 -8.53743 -8.53457 -8.5317 -8.5288 -8.52581 -8.52252 -8.51909 -8.51552 -8.51184 -8.50809 -8.50407 -8.50003 -8.49569 -8.49111 -8.48653 -8.4817 -8.47689 -8.47171 -8.46621 -8.46072 -8.455 -8.44929 -8.44323 -8.43672 -8.43022 -8.42352 -8.41675 -8.40964 -8.40219 -8.3946 -8.38683 -8.37876 -8.37051 -8.36217 -8.3534 -8.34444 -8.33495 -8.32547 -8.316 -8.30616 -8.29568 -8.28487 -8.27407 -8.26328 -8.25246 -8.25111 -8.24972 -8.24833 -8.24694 -8.24557 -8.23477 -8.22398 -8.2132 -8.20242 -8.19146 -8.17804 -8.16438 -8.15073 -8.13709 -8.12299 -8.10831 -8.09308 -8.07785 -8.06245 -8.0466 -8.0303 -8.01376 -7.99686 -7.97943 -7.96184 -7.94382 -7.92581 -7.90709 -7.88766 -7.86825 -7.84841 -7.8286 -7.80803 -7.78669 -7.76535 -7.74362 -7.72163 -7.699 -7.67604 -7.6527 -7.62897 -7.60442 -7.57974 -7.55507 -7.52981 -7.50357 -7.47672 -7.44989 -7.42307 -7.39624 -7.3958 -7.39535 -7.3949 -7.39445 -7.394 -7.36558 -7.33718 -7.3088 -7.28043 -7.25125 -7.2209 -7.18976 -7.15864 -7.12728 -7.09468 -7.06225 -7.02935 -6.99586 -6.96117 -6.92614 -6.89129 -6.85646 -6.8203 -6.78278 -6.74526 -6.70792 -6.67046 -6.63151 -6.59179 -6.55172 -6.51183 -6.47066 -6.42911 -6.38759 -6.34523 -6.31338 -6.28064 -6.24791 -6.21519 -6.18464 -6.17285 -6.16107 -6.14929 -6.13752 -6.12539 -6.0792 -6.03272 -5.98626 -5.93983 -5.89172 -5.84372 -5.79493 -5.74583 -5.69554 -5.64461 -5.59392 -5.54326 -5.49118 -5.43764 -5.38406 -5.3307 -5.27695 -5.22186 -5.16634 -5.11016 -5.05405 -4.99632 -4.93862 -4.88095 -4.82307 -4.81583 -4.80841 -4.801 -4.79358 -4.78624 -4.73371 -4.68121 -4.62873 -4.57627 -4.5225 -4.46112 -4.39893 -4.33665 -4.2734 -4.20945 -4.14563 -4.08185 -4.01691 -3.95078 -3.88459 -3.81846 -3.75177 -3.68432 -3.6169 -3.54862 -3.50432 -3.45928 -3.41424 -3.36923 -3.32674 -3.30191 -3.27709 -3.25227 -3.22745 -3.20219 -3.13152 -3.06052 -2.98956 -2.91829 -2.84621 -2.77408 -2.70199 -2.62925 -2.55586 -2.48236 -2.40873 -2.33492 -2.26076 -2.18663 -2.112 -2.0706 -2.02904 -1.98748 -1.94593 -1.90629 -1.87235 -1.83842 -1.8045 -1.77058 -1.73647 -1.6608 -1.58499 -1.50923 -1.43345 -1.35749 -1.28129 -1.20515 -1.12916 -1.05323 -0.977153 -0.90075 -0.824795 -0.748979 -0.673209 -0.597301 -0.595639 -0.593991 -0.592347 -0.590702 -0.58906 -0.514945 -0.440872 -0.366842 -0.292962 -0.21952 -0.144183 -0.0688959 0.00580712 0.0797633 0.153869 0.228284 0.302006 0.375092 0.448137 0.521114 0.535793 0.550247 0.564626 0.579003 0.593218 0.651058 0.708874 0.766666 0.824218 0.88106 0.95224 1.02334 1.0936 1.1627 1.23191 1.30121 1.36974 1.43737 1.50498 1.57232 1.58653 1.60047 1.61431 1.62815 1.64189 1.69427 1.74663 1.79898 1.851 1.90212 1.96695 2.03175 2.09537 2.15772 2.22012 2.28247 2.34397 2.40464 2.46531 2.5256 2.53611 2.54641 2.55662 2.56684 2.57705 2.62614 2.67524 2.72434 2.77334 2.82167 2.87927 2.93668 2.99352 3.04949 3.10544 3.16036 3.21507 3.26903 3.32286 3.37604 3.40617 3.43582 3.46539 3.49497 3.52516 3.54705 3.56895 3.59085 3.61268 3.634 3.68424 3.73357 3.78293 3.83148 3.87938 3.92705 3.97474 4.02127 4.06641 4.1115 4.15643 4.20022 4.24374 4.2873 4.33052 4.33554 4.34039 4.34523 4.35007 4.35496 4.3916 4.42828 4.46498 4.50163 4.537 4.57711 4.61675 4.6557 4.69326 4.73071 4.76821 4.80573 4.84188 4.87716 4.91199 4.94692 4.98053 5.01413 5.04778 5.0812 5.08381 5.08631 5.08881 5.09132 5.09384 5.12303 5.15224 5.18148 5.21074 5.23892 5.26943 5.29919 5.32857 5.35712 5.38532 5.41354 5.44178 5.46897 5.49496 5.52091 5.54692 5.57252 5.59754 5.62239 5.6462 5.66992 5.69287 5.71585 5.73885 5.76173 5.76358 5.76536 5.76715 5.76894 5.77076 5.7903 5.80986 5.82944 5.84904 5.86806 5.8885 5.90803 5.92757 5.9469 5.96566 5.98447 6.00301 6.02082 6.03799 6.05508 6.07227 6.08946 6.10582 6.12138 6.13693 6.1526 6.16828 6.1834 6.19764 6.21178 6.22605 6.2401 6.25388 6.26736 6.28021 6.29322 6.30584 6.31841 6.331 6.34283 6.35459 6.36608 6.37758 6.38908 6.40022 6.41087 6.42142 6.43196 6.44251 6.453 6.45526 6.4575 6.45975 6.46199 6.46439 6.47187 6.47936 6.48684 6.49432 6.50175 6.51095 6.52001 6.52907 6.53813 6.5471 6.55587 6.56435 6.57283 6.5813 6.58971 6.59811 6.60614 6.61418 6.62221 6.63019 6.63832 6.64605 6.65377 6.6615 6.66922 6.67716 6.68472 6.69227 6.69982 6.70743 6.71525 6.72282 6.73032 6.73786 6.74548 6.75332 6.76099 6.76859 6.77625 6.78402 6.79201 6.79991 6.80773 6.81566 6.82371 6.83197 6.8402 6.84837 6.85672 6.86518 6.87385 6.88251 6.89117 6.90007 6.90906 6.91827 6.92748 6.93673 6.94635 6.95599 6.96584 6.9757 6.98572 6.99613 7.00655 7.01717 7.02779 7.0387 7.05 7.06131 7.0728 7.08431 7.09622 7.1085 7.1208 7.13327 7.14575 7.15875 7.17212 7.18549 7.19904 7.21269 7.22687 7.2413 7.25584 7.27054 7.2856 7.30096 7.31643 7.3322 7.34812 7.36468 7.38129 7.39791 7.41485 7.43231 7.45018 7.46807 7.48597 7.50394 7.50705 7.51021 7.51337 7.51653 7.51959 7.53551 7.55143 7.56737 7.58331 7.59958 7.61965 7.63992 7.6602 7.68053 7.70145 7.72254 7.7439 7.76547 7.7876 7.81 7.83256 7.85514 7.87755 7.89984 7.92216 7.94461 7.9674 7.99274 8.01923 8.04644 8.0738 8.09366 8.11241 8.13116 8.1469 8.15373 8.16786 8.182 8.19615 8.20968 8.22597 8.24224 8.25851 8.27477 8.30151 8.34891 8.38677 8.42467 8.44635 8.46241 8.47899 8.49647 8.52286 8.54995 8.58043 8.59157 8.60248 8.61322 8.62396 8.63465 8.65463 8.67462 8.6946 8.71425 8.7335 8.7642 8.79489 8.82567 8.85662 8.88755 8.90872 8.92976 8.95065 8.97153 8.99301 9.00349 9.01396 9.02444 9.03484 9.04519 9.07737 9.1092 9.14068 9.17131 9.20186 9.22706 9.25175 9.27558 9.29938 9.32533 9.33087 9.33642 9.34197 9.34735 9.35261 9.38222 9.41092 9.43956 9.46609 9.49226 9.51728 9.54111 9.56304 9.58493 9.61068 9.61133 9.61198 9.61264 9.61325 9.61383 9.6349 9.65568 9.67634 9.69465 9.71126 9.72774 9.74365 9.75517 9.76653 9.77569 9.77833 9.78004 9.78095 9.78185 9.78282 9.78737 9.79183 9.79622 9.79906 9.79964 9.79948 9.79918 9.79388 9.7839 9.77379 9.76223 9.74593 9.72698 9.70796 9.688 9.68558 9.68255 9.67934 9.67613 9.67281 9.64695 9.62092 9.59471 9.56721 9.53396 9.49416 9.45377 9.40718 9.35358 9.29983 9.24255 9.1832 9.11614 9.047 8.97375 8.90641 8.8308 8.75517 8.6795 8.57505 8.56932 8.56358 8.55785 8.55211 8.54585 8.4398 8.33282 8.22563 8.11825 8.00019 7.87453 7.74429 7.61212 7.47441 7.33347 7.18574 7.03791 6.86941 6.68141 6.49318 6.29651 6.09973 5.91323 5.73437 5.5562 5.37013 5.13356 4.85404 4.56389 4.21244 3.86031 3.67545 3.49158 3.30867 3.19981 3.02716 2.57943 2.13036 1.68 1.3811 1.14894 0.917753 0.687525 0.458246 0