# vtk DataFile Version 2.0
track0
ASCII
DATASET POLYDATA
POINTS 11915 float
-0.0205 0.001 1e-05
-0.0202034 0.0010001 1e-05
-0.0199069 0.00100035 1e-05
-0.0196103 0.00100072 1e-05
-0.0193137 0.0010012 1e-05
-0.0190172 0.00100178 1e-05
-0.0187132 0.00100302 1e-05
-0.0184093 0.00100345 1e-05
-0.0181054 0.00100385 1e-05
-0.0178015 0.00100422 1e-05
-0.0174976 0.00100457 1e-05
-0.0172058 0.00100548 1e-05
-0.016914 0.00100571 1e-05
-0.0166222 0.00100595 1e-05
-0.0163305 0.00100621 1e-05
-0.0160387 0.00100648 1e-05
-0.0157586 0.00100728 1e-05
-0.0154784 0.0010076 1e-05
-0.0151983 0.00100797 1e-05
-0.0149182 0.00100839 1e-05
-0.0146381 0.00100885 1e-05
-0.0143692 0.00100973 1e-05
-0.0141002 0.00101028 1e-05
-0.0138313 0.00101087 1e-05
-0.0135624 0.00101151 1e-05
-0.0132934 0.00101219 1e-05
-0.0130353 0.00101316 1e-05
-0.0127771 0.0010139 1e-05
-0.0125189 0.00101468 1e-05
-0.0122607 0.0010155 1e-05
-0.0120025 0.00101634 1e-05
-0.0117547 0.00101736 1e-05
-0.0115068 0.00101825 1e-05
-0.0112589 0.00101916 1e-05
-0.0110111 0.00102009 1e-05
-0.0107632 0.00102105 1e-05
-0.0105252 0.00102211 1e-05
-0.0102873 0.00102308 1e-05
-0.0100493 0.00102408 1e-05
-0.00981133 0.00102509 1e-05
-0.00957337 0.00102612 1e-05
-0.00934491 0.00102719 1e-05
-0.00911645 0.00102821 1e-05
-0.00888799 0.00102925 1e-05
-0.00865954 0.00103031 1e-05
-0.00843108 0.00103137 1e-05
-0.00821175 0.00103244 1e-05
-0.00799242 0.00103349 1e-05
-0.00777309 0.00103454 1e-05
-0.00755376 0.00103561 1e-05
-0.00733443 0.00103668 1e-05
-0.00719131 0.0010374 1e-05
-0.00704818 0.00103811 1e-05
-0.00690505 0.00103882 1e-05
-0.00676193 0.00103954 1e-05
-0.00661985 0.00104025 1e-05
-0.0065522 0.00104059 1e-05
-0.00648455 0.00104094 1e-05
-0.0064169 0.00104128 1e-05
-0.00634925 0.00104162 1e-05
-0.0062816 0.00104197 1e-05
-0.00607944 0.00104299 1e-05
-0.00587729 0.00104402 1e-05
-0.00567514 0.00104506 1e-05
-0.00547298 0.0010461 1e-05
-0.00527083 0.00104714 1e-05
-0.00507675 0.00104814 1e-05
-0.00488267 0.00104914 1e-05
-0.0046886 0.00105015 1e-05
-0.00449452 0.00105116 1e-05
-0.00430044 0.00105217 1e-05
-0.00411412 0.00105313 1e-05
-0.0039278 0.0010541 1e-05
-0.00374147 0.00105507 1e-05
-0.00355515 0.00105604 1e-05
-0.00336883 0.00105701 1e-05
-0.00318995 0.00105793 1e-05
-0.00301107 0.00105887 1e-05
-0.00283219 0.0010598 1e-05
-0.00265331 0.00106073 1e-05
-0.00247443 0.00106166 1e-05
-0.0023027 0.00106254 1e-05
-0.00213097 0.00106343 1e-05
-0.00195924 0.00106432 1e-05
-0.0017875 0.00106521 1e-05
-0.00161577 0.0010661 1e-05
-0.0014509 0.00106695 1e-05
-0.00128603 0.00106779 1e-05
-0.00112116 0.00106863 1e-05
-0.000956289 0.00106947 1e-05
-0.000791418 0.0010703 1e-05
-0.000633135 0.00107108 1e-05
-0.000474851 0.00107186 1e-05
-0.000316567 0.00107262 1e-05
-0.000158283 0.00107336 1e-05
0 0.00107409 1e-05
0.000105677 0.00107455 1e-05
0.000211355 0.00107501 1e-05
0.000317032 0.00107546 1e-05
0.00042271 0.0010759 1e-05
0.000528387 0.00107632 1e-05
0.000634886 0.00107672 1e-05
0.000741385 0.00107712 1e-05
0.000847885 0.00107751 1e-05
0.000954384 0.00107789 1e-05
0.00106088 0.00107825 1e-05
0.00116821 0.0010786 1e-05
0.00127554 0.00107895 1e-05
0.00138286 0.00107928 1e-05
0.00149019 0.0010796 1e-05
0.00159752 0.00107991 1e-05
0.00170568 0.0010802 1e-05
0.00181384 0.0010805 1e-05
0.001922 0.00108078 1e-05
0.00203016 0.00108105 1e-05
0.00213833 0.00108132 1e-05
0.00224733 0.00108156 1e-05
0.00235633 0.0010818 1e-05
0.00246533 0.00108204 1e-05
0.00257434 0.00108227 1e-05
0.00268334 0.0010825 1e-05
0.00279319 0.0010827 1e-05
0.00290304 0.00108291 1e-05
0.00301289 0.00108312 1e-05
0.00312274 0.00108331 1e-05
0.00323259 0.00108351 1e-05
0.00334329 0.00108368 1e-05
0.003454 0.00108386 1e-05
0.0035647 0.00108404 1e-05
0.0036754 0.00108421 1e-05
0.00378611 0.00108437 1e-05
0.00389767 0.00108453 1e-05
0.00400924 0.00108468 1e-05
0.0041208 0.00108483 1e-05
0.00423237 0.00108498 1e-05
0.00434393 0.00108512 1e-05
0.00445636 0.00108525 1e-05
0.00456879 0.00108538 1e-05
0.00468123 0.00108551 1e-05
0.00479366 0.00108563 1e-05
0.00490609 0.00108575 1e-05
0.0050194 0.00108586 1e-05
0.0051327 0.00108598 1e-05
0.00524601 0.00108608 1e-05
0.00535932 0.00108618 1e-05
0.00547262 0.00108628 1e-05
0.00553138 0.00108633 1e-05
0.00559014 0.00108637 1e-05
0.0056489 0.00108642 1e-05
0.00570766 0.00108646 1e-05
0.00576498 0.0010865 1e-05
0.00582069 0.00108654 1e-05
0.00587641 0.00108658 1e-05
0.00593212 0.00108662 1e-05
0.00598784 0.00108666 1e-05
0.00604356 0.00108669 1e-05
0.00615863 0.00108676 1e-05
0.00627371 0.00108683 1e-05
0.00638878 0.00108689 1e-05
0.00650386 0.00108694 1e-05
0.00661893 0.00108699 1e-05
0.0067349 0.00108704 1e-05
0.00685087 0.00108708 1e-05
0.00696684 0.00108712 1e-05
0.00708281 0.00108715 1e-05
0.00719878 0.00108718 1e-05
0.00731565 0.0010872 1e-05
0.00743252 0.00108721 1e-05
0.00754939 0.00108722 1e-05
0.00766626 0.00108723 1e-05
0.00778313 0.00108723 1e-05
0.00790091 0.00108722 1e-05
0.00801869 0.00108721 1e-05
0.00813647 0.00108719 1e-05
0.00825425 0.00108717 1e-05
0.00837203 0.00108714 1e-05
0.00849073 0.0010871 1e-05
0.00860942 0.00108706 1e-05
0.00872812 0.00108701 1e-05
0.00884682 0.00108696 1e-05
0.00896551 0.0010869 1e-05
0.00908513 0.00108683 1e-05
0.00920475 0.00108676 1e-05
0.00932437 0.00108668 1e-05
0.00944398 0.00108659 1e-05
0.0095636 0.0010865 1e-05
0.00968415 0.00108639 1e-05
0.0098047 0.00108628 1e-05
0.00992525 0.00108617 1e-05
0.0100458 0.00108605 1e-05
0.0101663 0.00108593 1e-05
0.0102878 0.00108578 1e-05
0.0104093 0.00108563 1e-05
0.0105308 0.00108549 1e-05
0.0106523 0.00108533 1e-05
0.0107738 0.00108517 1e-05
0.0108962 0.00108497 1e-05
0.0110186 0.00108479 1e-05
0.0111411 0.00108461 1e-05
0.0112635 0.00108441 1e-05
0.0113859 0.00108421 1e-05
0.0115093 0.00108397 1e-05
0.0116327 0.00108375 1e-05
0.0117561 0.00108352 1e-05
0.0118795 0.00108328 1e-05
0.0120028 0.00108304 1e-05
0.0121272 0.00108276 1e-05
0.0122515 0.00108249 1e-05
0.0123759 0.00108221 1e-05
0.0125002 0.00108193 1e-05
0.0126245 0.00108164 1e-05
0.0127498 0.00108131 1e-05
0.0128752 0.001081 1e-05
0.0130005 0.00108068 1e-05
0.0131258 0.00108035 1e-05
0.0132511 0.00108001 1e-05
0.0133774 0.00107964 1e-05
0.0135036 0.00107928 1e-05
0.0136299 0.0010789 1e-05
0.0137562 0.00107852 1e-05
0.0138825 0.00107814 1e-05
0.0140098 0.00107771 1e-05
0.014137 0.0010773 1e-05
0.0142643 0.00107687 1e-05
0.0143915 0.00107644 1e-05
0.0145188 0.001076 1e-05
0.0146471 0.00107552 1e-05
0.0147753 0.00107506 1e-05
0.0149036 0.00107458 1e-05
0.0150318 0.00107409 1e-05
0.0151601 0.0010736 1e-05
0.0152893 0.00107307 1e-05
0.0154186 0.00107254 1e-05
0.0155478 0.00107201 1e-05
0.0156771 0.00107146 1e-05
0.0158063 0.00107091 1e-05
0.0159366 0.00107032 1e-05
0.0160668 0.00106974 1e-05
0.0161971 0.00106915 1e-05
0.0163274 0.00106854 1e-05
0.0164576 0.00106793 1e-05
0.0165889 0.00106729 1e-05
0.0167201 0.00106664 1e-05
0.0168514 0.00106599 1e-05
0.0169827 0.00106532 1e-05
0.0171139 0.00106465 1e-05
0.0172462 0.00106395 1e-05
0.0173785 0.00106324 1e-05
0.0175108 0.00106252 1e-05
0.0176431 0.0010618 1e-05
0.0177754 0.00106106 1e-05
0.0179087 0.0010603 1e-05
0.018042 0.00105953 1e-05
0.0181753 0.00105875 1e-05
0.0183087 0.00105796 1e-05
0.018442 0.00105715 1e-05
0.0185763 0.00105633 1e-05
0.0187107 0.0010555 1e-05
0.018845 0.00105465 1e-05
0.0189794 0.00105379 1e-05
0.0191137 0.00105293 1e-05
0.0192491 0.00105205 1e-05
0.0193845 0.00105115 1e-05
0.0195199 0.00105023 1e-05
0.0196553 0.0010493 1e-05
0.0197907 0.00104837 1e-05
0.0199272 0.00104743 1e-05
0.0200636 0.00104646 1e-05
0.0202001 0.00104548 1e-05
0.0203365 0.00104448 1e-05
0.020473 0.00104348 1e-05
0.0206105 0.00104247 1e-05
0.020748 0.00104144 1e-05
0.0208855 0.00104038 1e-05
0.021023 0.00103931 1e-05
0.0211606 0.00103825 1e-05
0.0212991 0.00103718 1e-05
0.0214377 0.00103608 1e-05
0.0215763 0.00103495 1e-05
0.0217149 0.00103381 1e-05
0.0218535 0.00103267 1e-05
0.0219931 0.00103153 1e-05
0.0221328 0.00103037 1e-05
0.0222724 0.00102917 1e-05
0.0224121 0.00102796 1e-05
0.0225517 0.00102675 1e-05
0.0226925 0.00102555 1e-05
0.0228332 0.00102431 1e-05
0.022974 0.00102304 1e-05
0.0231147 0.00102176 1e-05
0.0232555 0.00102048 1e-05
0.0233973 0.00101921 1e-05
0.0235391 0.0010179 1e-05
0.023681 0.00101656 1e-05
0.0238228 0.0010152 1e-05
0.0239647 0.00101386 1e-05
0.0241076 0.00101252 1e-05
0.0242505 0.00101114 1e-05
0.0243935 0.00100972 1e-05
0.0245364 0.0010083 1e-05
0.0246794 0.00100688 1e-05
0.0248234 0.00100547 1e-05
0.0249675 0.00100401 1e-05
0.0251115 0.00100253 1e-05
0.0252556 0.00100103 1e-05
0.0253996 0.00099954 1e-05
0.0255448 0.000998053 1e-05
0.02569 0.000996529 1e-05
0.0258351 0.000994967 1e-05
0.0259803 0.000993393 1e-05
0.0261255 0.000991832 1e-05
0.0262718 0.000990272 1e-05
0.0264181 0.000988674 1e-05
0.0265644 0.000987036 1e-05
0.0267107 0.000985388 1e-05
0.026857 0.000983753 1e-05
0.0270044 0.000982118 1e-05
0.0271519 0.000980443 1e-05
0.0272993 0.000978733 1e-05
0.0274467 0.000977012 1e-05
0.0275942 0.0009753 1e-05
0.0277428 0.000973588 1e-05
0.0278914 0.000971837 1e-05
0.0280399 0.000970053 1e-05
0.0281885 0.000968259 1e-05
0.0283371 0.00096647 1e-05
0.0284869 0.00096468 1e-05
0.0286366 0.00096285 1e-05
0.0287863 0.000960992 1e-05
0.0289361 0.000959122 1e-05
0.0290858 0.000957254 1e-05
0.0292367 0.000955384 1e-05
0.0293876 0.000953474 1e-05
0.0295385 0.000951539 1e-05
0.0296894 0.000949592 1e-05
0.0298403 0.000947643 1e-05
0.0299924 0.000945691 1e-05
0.0301445 0.000943698 1e-05
0.0302966 0.000941685 1e-05
0.0304486 0.00093966 1e-05
0.0306007 0.000937627 1e-05
0.030754 0.00093559 1e-05
0.0309072 0.000933513 1e-05
0.0310605 0.000931419 1e-05
0.0312138 0.000929312 1e-05
0.031367 0.000927195 1e-05
0.0315215 0.00092507 1e-05
0.0316759 0.000922906 1e-05
0.0318304 0.000920728 1e-05
0.0319848 0.000918538 1e-05
0.0321393 0.000916335 1e-05
0.0322949 0.00091412 1e-05
0.0324506 0.00091187 1e-05
0.0326062 0.000909607 1e-05
0.0327619 0.000907329 1e-05
0.0329175 0.000905039 1e-05
0.0330744 0.000902731 1e-05
0.0332313 0.000900393 1e-05
0.0333881 0.00089804 1e-05
[...]
POINT_DATA 11915
 FIELD attributes 1
U 3 11915 float
9.9991 	0.00338297 	0 9.99878 	0.00857078 	0 9.99916 	0.01233 	0 9.99953 	0.0160796 	0 9.99992 	0.0198193 	0 10.003 	0.0406763 	0 10.0034 	0.014051 	0 10.0062 	0.0131842 	0 10.009 	0.0123137 	0 10.0119 	0.0114395 	0 10.0151 	0.0311984 	0 10.0177 	0.00790616 	0 10.0202 	0.00837916 	0 10.0228 	0.00885533 	0 10.0253 	0.0093347 	0 10.0256 	0.0285229 	0 10.0288 	0.0115996 	0 10.0302 	0.0132462 	0 10.0316 	0.0149034 	0 10.033 	0.0165713 	0 10.0304 	0.0327909 	0 10.0348 	0.0205327 	0 10.0357 	0.0221345 	0 10.0366 	0.0237454 	0 10.0374 	0.0253653 	0 10.0331 	0.0375872 	0 10.0384 	0.0290152 	0 10.0388 	0.0302972 	0 10.0393 	0.0315853 	0 10.0398 	0.0328796 	0 10.0345 	0.041472 	0 10.0399 	0.0358392 	0 10.04 	0.0368408 	0 10.0402 	0.0378463 	0 10.0403 	0.0388559 	0 10.0348 	0.0445568 	0 10.0398 	0.0411297 	0 10.0397 	0.041897 	0 10.0395 	0.0426668 	0 10.0394 	0.0434391 	0 10.0344 	0.0469598 	0 10.0385 	0.0451014 	0 10.0382 	0.0456713 	0 10.0379 	0.0462426 	0 10.0376 	0.0468154 	0 10.0338 	0.0487582 	0 10.0365 	0.0479671 	0 10.0361 	0.0483752 	0 10.0356 	0.0487842 	0 10.0351 	0.049194 	0 10.0331 	0.0500397 	0 10.0342 	0.0498504 	0 10.0338 	0.0500395 	0 10.0335 	0.0502288 	0 10.0331 	0.0504184 	0 10.0327 	0.0506068 	0 10.0325 	0.0506946 	0 10.0324 	0.0507825 	0 10.0322 	0.0508705 	0 10.032 	0.0509585 	0 10.0317 	0.050951 	0 10.0312 	0.0511954 	0 10.0306 	0.0513655 	0 10.03 	0.0515359 	0 10.0293 	0.0517064 	0 10.0282 	0.0515517 	0 10.0282 	0.0518968 	0 10.0276 	0.0519863 	0 10.0269 	0.0520758 	0 10.0262 	0.0521654 	0 10.0246 	0.051777 	0 10.0252 	0.0521845 	0 10.0246 	0.0522139 	0 10.0239 	0.0522433 	0 10.0232 	0.0522727 	0 10.021 	0.0517285 	0 10.0224 	0.0521766 	0 10.0218 	0.0521708 	0 10.0211 	0.0521649 	0 10.0205 	0.0521591 	0 10.0177 	0.0515232 	0 10.02 	0.0519846 	0 10.0195 	0.0519504 	0 10.0191 	0.0519161 	0 10.0186 	0.0518819 	0 10.0152 	0.0511794 	0 10.0186 	0.051436 	0 10.0184 	0.0511239 	0 10.0182 	0.0508117 	0 10.018 	0.0504994 	0 10.014 	0.0494657 	0 10.0187 	0.0491044 	0 10.0189 	0.048045 	0 10.0191 	0.0469852 	0 10.0192 	0.045925 	0 10.0147 	0.0442204 	0 10.0198 	0.0438506 	-3.4517e-21 10.0196 	0.0425314 	-9.20587e-21 10.0194 	0.0412117 	-1.4961e-20 10.0192 	0.0398916 	-2.0717e-20 10.0142 	0.0379049 	-2.68655e-20 10.0188 	0.0378324 	-4.15556e-20 10.0183 	0.0366388 	-4.13964e-20 10.0178 	0.0354445 	-4.1232e-20 10.0172 	0.0342497 	-4.10624e-20 10.0121 	0.0321876 	-2.54456e-20 10.0163 	0.0323714 	-2.71055e-20 10.0156 	0.0312433 	-3.06485e-20 10.0149 	0.0301145 	-3.41937e-20 10.0141 	0.0289848 	-3.7741e-20 10.0091 	0.0267944 	-4.19209e-20 10.0128 	0.0271861 	-5.46623e-20 10.0119 	0.0262159 	-5.45007e-20 10.0109 	0.025245 	-5.43357e-20 10.01 	0.0242732 	-5.41673e-20 10.0051 	0.0221524 	-4.38452e-20 10.0081 	0.0226927 	-3.19107e-20 10.0069 	0.0219509 	-1.92805e-20 10.0057 	0.0212084 	-6.65086e-21 10.0045 	0.0204653 	5.97822e-21 9.99981 	0.0186106 	1.8689e-20 10.0022 	0.0191507 	1.21207e-20 10.0007 	0.0185797 	7.61102e-21 9.99926 	0.0180082 	3.10149e-21 9.9978 	0.0174363 	-1.40788e-21 9.99335 	0.0159049 	-2.09579e-21 9.99495 	0.0163158 	4.90268e-21 9.99325 	0.0158416 	5.72054e-21 9.99156 	0.0153669 	6.53553e-21 9.98986 	0.0148919 	7.34765e-21 9.9857 	0.0136792 	1.06027e-21 9.98648 	0.0138997 	1.83604e-20 9.98452 	0.0134768 	2.2164e-20 9.98255 	0.0130536 	2.59629e-20 9.98059 	0.0126301 	2.9757e-20 9.97676 	0.0117105 	2.13783e-20 9.97661 	0.0117278 	1.81936e-20 9.97435 	0.0113286 	1.35617e-20 9.97209 	0.0109291 	8.93e-21 9.96983 	0.0105294 	4.29858e-21 9.96637 	0.00985912 	-6.83743e-22 9.96517 	0.00968654 	6.31793e-21 9.96258 	0.00929191 	1.31142e-20 9.95999 	0.00889704 	1.99109e-20 9.9574 	0.00850194 	2.67079e-20 9.95438 	0.00802587 	3.33881e-20 9.95338 	0.00788497 	3.00824e-20 9.95187 	0.00767817 	2.66619e-20 9.95035 	0.00747132 	2.32416e-20 9.94884 	0.00726441 	1.98214e-20 9.94736 	0.00706256 	1.64856e-20 9.94591 	0.00686475 	1.34525e-20 9.94445 	0.00666689 	1.04199e-20 9.943 	0.00646898 	7.38805e-21 9.94154 	0.00627101 	4.35683e-21 9.93757 	0.00606286 	1.11139e-22 9.93663 	0.00566757 	-8.33373e-21 9.93327 	0.00524929 	-1.55724e-20 9.9299 	0.0048308 	-2.2814e-20 9.92653 	0.00441211 	-3.00584e-20 9.91508 	0.00388114 	-3.35499e-20 9.91905 	0.00358565 	-2.01569e-20 9.91527 	0.00315006 	-6.76212e-21 9.91149 	0.00271428 	6.63262e-21 9.90771 	0.00227831 	2.00274e-20 9.88982 	0.00154379 	3.2332e-20 9.89908 	0.00141364 	4.40959e-20 9.89486 	0.000958064 	5.0144e-20 9.89064 	0.000502296 	5.61944e-20 9.88641 	4.63343e-05 	6.22471e-20 9.86172 	-0.00094819 	5.83e-20 9.87651 	-0.000875334 	5.13618e-20 9.87184 	-0.00135157 	4.44935e-20 9.86715 	-0.001828 	3.76239e-20 9.86247 	-0.00230464 	3.0753e-20 9.83074 	-0.00358483 	2.69922e-20 9.8512 	-0.00329604 	1.3686e-20 9.84605 	-0.00379237 	-2.20272e-21 9.84089 	-0.00428891 	-1.80911e-20 9.83573 	-0.00478568 	-3.3979e-20 9.79692 	-0.00635105 	-4.35807e-20 9.82302 	-0.00585453 	-2.75613e-20 9.81738 	-0.00637013 	-2.67153e-20 9.81173 	-0.00688598 	-2.58636e-20 9.80608 	-0.00740207 	-2.50062e-20 9.76031 	-0.00923149 	-4.3909e-20 9.79186 	-0.00855204 	-3.73753e-20 9.78573 	-0.00908616 	-2.68884e-20 9.7796 	-0.00962056 	-1.64006e-20 9.77346 	-0.0101552 	-5.91205e-21 9.721 	-0.0122118 	0 9.75769 	-0.0113863 	-3.06254e-21 9.75108 	-0.0119383 	-8.6047e-21 9.74445 	-0.0124906 	-1.41464e-20 9.73782 	-0.0130432 	-1.96876e-20 9.67914 	-0.0152788 	-1.94267e-20 9.72051 	-0.0143521 	-2.23054e-20 9.71341 	-0.0149215 	-2.21768e-20 9.70631 	-0.0154912 	-2.20471e-20 9.6992 	-0.0160613 	-2.19165e-20 9.63488 	-0.0184204 	-2.05583e-20 9.68036 	-0.0174423 	-1.92508e-20 9.67279 	-0.0180287 	-1.35178e-20 9.66522 	-0.0186155 	-7.7843e-21 9.65764 	-0.0192027 	-2.05029e-21 9.58842 	-0.0216256 	-2.47098e-21 9.63732 	-0.020648 	-3.42956e-21 9.62931 	-0.021251 	-1.35402e-20 9.62129 	-0.0218546 	-2.36498e-20 9.61325 	-0.0224586 	-3.37584e-20 9.53994 	-0.0248839 	-3.65493e-20 9.59154 	-0.0239591 	1.9323e-21 9.5831 	-0.0245786 	2.99039e-21 9.57464 	-0.0251986 	4.05577e-21 9.56617 	-0.0258192 	5.12844e-21 9.48965 	-0.0281858 	-3.5328e-20 9.54318 	-0.0273648 	-3.29623e-20 9.53432 	-0.0280005 	-2.24298e-20 9.52546 	-0.0286367 	-1.18962e-20 9.51658 	-0.0292736 	-1.36143e-21 9.43778 	-0.0315221 	0 9.49243 	-0.0308538 	0 9.4832 	-0.0315052 	0 9.47395 	-0.0321573 	0 9.46468 	-0.03281 	0 9.38453 	-0.0348841 	0 9.43954 	-0.0344142 	1.7143e-22 9.42995 	-0.0350808 	1.1041e-20 9.42033 	-0.0357482 	2.19094e-20 9.4082 	-0.0364579 	3.27776e-20 9.33012 	-0.0382634 	4.36729e-20 9.38037 	-0.0380957 	3.24267e-20 9.37482 	-0.038715 	4.13315e-20 9.36488 	-0.0393969 	5.18158e-20 9.34717 	-0.0401775 	6.32556e-20 9.27474 	-0.0416517 	8.1474e-20 9.3193 	-0.0417917 	6.23959e-20 9.31809 	-0.0423948 	4.94702e-20 9.30783 	-0.0430901 	3.77549e-20 9.28544 	-0.0438845 	3.01141e-20 9.21859 	-0.04504 	3.74307e-20 9.25765 	-0.0454708 	2.95998e-20 9.26003 	-0.0461057 	1.57464e-20 9.24949 	-0.046813 	-2.25249e-22 9.22329 	-0.0475655 	-1.185e-20 9.16187 	-0.0484187 	-1.36871e-20 9.19569 	-0.0491209 	3.81895e-20 9.20092 	-0.0498329 	5.75661e-20 9.19012 	-0.050551 	5.87459e-20 9.16097 	-0.0512097 	3.85643e-20 9.10475 	-0.0517806 	-1.31331e-20 9.13364 	-0.0527332 	-1.09746e-20 9.14103 	-0.0535647 	-7.3376e-21 9.13001 	-0.0542925 	-2.43416e-21 9.0987 	-0.0548105 	0 9.04742 	-0.0551217 	0 9.07172 	-0.0563025 	0 9.08065 	-0.0572914 	0 9.06941 	-0.0580279 	0 9.03669 	-0.0583636 	0 8.99001 	-0.0584389 	0 9.01011 	-0.0598242 	0 9.02001 	-0.0610029 	0 9.0086 	-0.061747 	0 8.9751 	-0.0618645 	0 8.93268 	-0.0617288 	0 8.94896 	-0.0632939 	0 8.95936 	-0.0646891 	1.48751e-21 8.94778 	-0.0654393 	8.58012e-21 8.91408 	-0.0653096 	2.52671e-20 8.87556 	-0.0649883 	4.40414e-20 8.88839 	-0.0667084 	1.6957e-19 8.89889 	-0.0683406 	2.83213e-19 8.88719 	-0.0690958 	2.80528e-19 8.85374 	-0.0686968 	1.61259e-19 8.81875 	-0.0682155 	3.36965e-20 8.82852 	-0.0700662 	-3.0165e-20 8.83821 	-0.0719189 	-9.40219e-20 8.82601 	-0.0726412 	-1.0124e-19 8.79419 	-0.0720256 	-5.54557e-20 8.76238 	-0.0714096 	-9.67119e-21 8.76943 	-0.0733672 	-7.12859e-21 8.77641 	-0.0753269 	-4.58263e-21 8.76451 	-0.0760225 	8.28935e-21 8.73552 	-0.075297 	1.55003e-20 8.70655 	-0.074571 	2.27126e-20 8.71122 	-0.076613 	1.48296e-20 8.71581 	-0.078657 	6.94155e-21 8.70428 	-0.079325 	1.91319e-20 8.6778 	-0.0785135 	5.28304e-20 8.65135 	-0.0777013 	8.65305e-20 8.65394 	-0.0798064 	1.45358e-19 8.65645 	-0.0819137 	2.04181e-19 8.64533 	-0.082554 	1.91894e-19 8.62107 	-0.081679 	1.11744e-19 8.59684 	-0.0808033 	3.15917e-20 8.59763 	-0.082952 	1.91519e-20 8.59834 	-0.085103 	6.71649e-21 8.58769 	-0.0857164 	-6.41497e-21 8.56538 	-0.0847989 	-1.99749e-20 8.54309 	-0.0838808 	-3.35361e-20 8.54233 	-0.0860557 	-1.95857e-20 8.54149 	-0.0882328 	-5.63229e-21 8.53134 	-0.0888203 	3.20319e-21 8.51073 	-0.0878797 	1.34207e-20 8.49015 	-0.0869384 	2.36398e-20 8.48806 	-0.089124 	1.28537e-20 8.48588 	-0.0913118 	2.06324e-21 8.47627 	-0.0918749 	1.12187e-20 8.45715 	-0.0909285 	2.15013e-20 8.43806 	-0.0899815 	3.17813e-20 8.43483 	-0.0921643 	6.73965e-20 8.43151 	-0.0943493 	1.0302e-19 8.42245 	-0.0948894 	1.00569e-19 8.40464 	-0.0939524 	5.2639e-20 8.38686 	-0.0930147 	4.70414e-21 8.38265 	-0.0951834 	9.36212e-21 8.37794 	-0.0972066 	1.14029e-20 8.36891 	-0.0976978 	-1.38605e-20 8.3532 	-0.0969582 	-3.46819e-20 8.33656 	-0.0960431 	-5.48716e-20 8.33151 	-0.0981887 	-1.67813e-19 8.32552 	-0.0999536 	-2.52501e-19 8.31661 	-0.100452 	-2.43583e-19 8.30283 	-0.0999552 	-1.55438e-19 8.28719 	-0.0990744 	-3.68204e-20 8.28143 	-0.10119 	-2.27118e-20 8.27449 	-0.102698 	-1.00061e-20 8.26569 	-0.103207 	4.01574e-22 8.25351 	-0.102955 	1.50504e-20 8.23875 	-0.102118 	3.29641e-20 8.23237 	-0.1042 	5.77636e-20 8.22475 	-0.105456 	6.29802e-20 8.21605 	-0.105976 	5.07757e-20 8.20521 	-0.105968 	2.84315e-20 8.19123 	-0.105183 	-8.84747e-21 8.18432 	-0.107228 	-1.02513e-19 8.17625 	-0.108241 	-1.32605e-19 8.16764 	-0.108774 	-1.33124e-19 8.1579 	-0.109005 	-1.1569e-19 8.1446 	-0.108277 	-4.12876e-20 8.13724 	-0.110284 	-3.03971e-20 8.12891 	-0.111066 	-3.14093e-20 8.12038 	-0.111614 	-3.47072e-20 8.11154 	-0.112076 	-3.87817e-20 8.09886 	-0.111409 	-5.29897e-20 8.09109 	-0.113377 	-1.23866e-19 8.08267 	-0.113943 	-1.19282e-19 8.07421 	-0.114507 	-1.14596e-19 8.06573 	-0.115071 	-1.09901e-19 8.05397 	-0.114587 	-4.3887e-20 8.04583 	-0.1163 	-3.33304e-20 8.03747 	-0.116882 	-2.31623e-20 8.02908 	-0.117464 	-1.29958e-20 8.02067 	-0.118046 	-2.83087e-21 8.00992 	-0.11782 	6.8644e-21 8.00156 	-0.119292 	-9.34631e-22 7.99325 	-0.119893 	-3.78602e-21 7.98493 	-0.120494 	-6.63783e-21 7.97657 	-0.121095 	-9.49005e-21 7.96667 	-0.121117 	6.08765e-22 7.95822 	-0.122363 	1.53467e-20 7.94997 	-0.122984 	2.69194e-20 7.94169 	-0.123606 	3.84868e-20 7.93339 	-0.124228 	5.00487e-20 7.92418 	-0.124485 	5.01395e-20 7.91577 	-0.125521 	5.81485e-20 7.90756 	-0.126164 	6.02976e-20 7.89933 	-0.126807 	6.24438e-20 7.89107 	-0.127451 	6.45871e-20 7.88242 	-0.127932 	5.96153e-20 7.87528 	-0.128679 	5.13311e-20 7.86827 	-0.129251 	4.0752e-20 7.86124 	-0.129823 	3.01746e-20 7.85418 	-0.130395 	1.95987e-20 7.84741 	-0.130943 	9.48356e-21 7.84613 	-0.131043 	7.51024e-21 7.84485 	-0.131142 	5.53687e-21 7.84356 	-0.131242 	3.56345e-21 7.84228 	-0.131341 	1.58997e-21 7.84119 	-0.131413 	0 7.8326 	-0.132132 	0 7.82407 	-0.132825 	0 7.81552 	-0.13352 	0 7.80693 	-0.134214 	0 7.79983 	-0.134701 	0 7.79059 	-0.13561 	3.55602e-21 7.78209 	-0.136329 	8.26129e-21 7.77355 	-0.137049 	1.29655e-20 7.76499 	-0.13777 	1.76688e-20 7.75919 	-0.138108 	2.2322e-20 7.7493 	-0.139203 	3.88131e-20 7.74082 	-0.139951 	4.00867e-20 7.7323 	-0.140698 	4.13665e-20 7.72375 	-0.141447 	4.26526e-20 7.71923 	-0.141644 	2.12878e-20 7.70869 	-0.142921 	1.48079e-20 7.70021 	-0.143698 	5.10265e-21 7.6917 	-0.144475 	-4.60262e-21 7.68316 	-0.145252 	-1.43079e-20 7.67988 	-0.145315 	-1.96184e-20 7.6687 	-0.146772 	-4.97879e-20 7.66023 	-0.147579 	-4.67418e-20 7.65172 	-0.148387 	-4.37034e-20 7.6435 	-0.149151 	-3.88102e-20 7.64111 	-0.149131 	-6.73528e-22 7.62974 	-0.150659 	-3.8186e-20 7.62081 	-0.151603 	-4.143e-20 7.61229 	-0.152443 	-3.85677e-20 7.60538 	-0.153065 	-2.50853e-20 7.60287 	-0.153099 	1.70446e-20 7.59155 	-0.15464 	1.21482e-20 7.58193 	-0.155776 	2.05747e-21 7.5734 	-0.156649 	-1.13935e-20 7.56776 	-0.157137 	-2.24757e-20 7.56512 	-0.157226 	-3.11197e-20 7.55385 	-0.158782 	-2.1652e-20 7.54353 	-0.160106 	-1.52802e-20 7.53498 	-0.161015 	-1.44339e-20 7.53059 	-0.161375 	-2.04468e-20 7.52782 	-0.161519 	-2.91338e-20 7.51659 	-0.163094 	-1.9593e-20 7.50558 	-0.164603 	-9.6035e-21 7.497 	-0.165549 	4.19829e-21 7.49383 	-0.165788 	8.84961e-21 7.49092 	-0.16599 	1.30322e-20 7.47972 	-0.167585 	4.39016e-20 7.46846 	-0.169181 	7.47688e-20 7.46048 	-0.170127 	7.46506e-20 7.45745 	-0.170388 	4.32975e-20 7.4544 	-0.170649 	1.19425e-20 7.44323 	-0.172269 	7.30021e-21 7.432 	-0.173889 	2.65579e-21 7.42459 	-0.174866 	-1.08526e-20 7.42141 	-0.175188 	-3.20219e-20 7.41821 	-0.17551 	-5.31918e-20 7.40707 	-0.177156 	-1.34636e-19 7.39585 	-0.178803 	-2.16078e-19 7.389 	-0.179814 	-2.16178e-19 7.38567 	-0.180198 	-1.34212e-19 7.38233 	-0.180583 	-5.22412e-20 7.37119 	-0.18226 	-3.05645e-20 7.35998 	-0.183937 	-8.88575e-21 7.35367 	-0.184983 	-3.99189e-23 7.35019 	-0.185432 	-3.98445e-21 7.34669 	-0.185882 	-7.92863e-21 7.33556 	-0.187593 	-3.69438e-20 7.32536 	-0.189177 	-5.99683e-20 7.31927 	-0.190237 	-5.81665e-20 7.31494 	-0.190904 	-3.63233e-20 7.31128 	-0.19142 	-6.79869e-21 7.30014 	-0.193168 	-2.36883e-21 7.29128 	-0.194623 	1.40113e-23 7.28509 	-0.195736 	5.13099e-24 7.27988 	-0.196626 	0 7.27605 	-0.197212 	0 7.26491 	-0.199001 	0 7.25734 	-0.200335 	-2.33941e-24 7.25105 	-0.201505 	-5.52419e-24 7.24497 	-0.202618 	-4.27945e-22 7.24097 	-0.203276 	-4.18909e-21 7.22988 	-0.205102 	-3.13801e-20 7.22352 	-0.206332 	-2.94863e-20 7.21711 	-0.207563 	-2.75806e-20 7.21066 	-0.208793 	-2.56632e-20 7.20599 	-0.209631 	-6.51161e-23 7.19624 	-0.211337 	2.13058e-20 7.18977 	-0.212631 	1.94005e-20 7.18324 	-0.213926 	1.74829e-20 7.17666 	-0.21522 	1.55529e-20 7.17108 	-0.216294 	-1.56834e-21 7.16264 	-0.217889 	6.81924e-23 7.15604 	-0.219251 	5.06234e-23 7.14938 	-0.220614 	3.30624e-23 7.14268 	-0.221976 	1.55093e-23 7.13618 	-0.223284 	-8.50237e-22 7.1335 	-0.223816 	0 7.13128 	-0.22429 	0 7.12906 	-0.224764 	0 7.12683 	-0.225238 	0 7.12465 	-0.225701 	0 7.11984 	-0.22666 	0 7.115 	-0.227619 	0 7.11013 	-0.228577 	0 7.10524 	-0.229536 	0 7.1005 	-0.230383 	0 7.09356 	-0.231992 	-5.01904e-21 7.08627 	-0.233496 	-1.17407e-20 7.07892 	-0.235 	-1.84587e-20 7.07151 	-0.236504 	-2.51731e-20 7.06444 	-0.237734 	-3.19011e-20 7.0578 	-0.239575 	-2.65299e-20 7.05034 	-0.241158 	-2.54509e-20 7.04282 	-0.242741 	-2.43643e-20 7.03524 	-0.244324 	-2.32701e-20 7.02823 	-0.245474 	-3.26675e-20 7.02182 	-0.24753 	-4.98709e-20 7.01423 	-0.249214 	-4.52975e-20 7.00653 	-0.25088 	-3.96505e-20 6.99893 	-0.252425 	-2.8285e-20 6.99178 	-0.25362 	-2.49054e-22 6.98517 	-0.255752 	-1.38687e-23 6.97788 	-0.257681 	3.42514e-21 6.96998 	-0.259432 	9.67252e-21 6.96241 	-0.260898 	2.02909e-20 6.95502 	-0.262189 	3.35971e-20 6.94821 	-0.2644 	2.02565e-20 6.94121 	-0.266576 	8.68236e-21 6.93309 	-0.268415 	1.37659e-20 6.92551 	-0.269806 	2.61367e-20 6.91788 	-0.271194 	3.8552e-20 6.91084 	-0.273488 	-2.72995e-21 6.90372 	-0.275781 	-4.40218e-20 6.896 	-0.277674 	-5.06438e-20 6.88817 	-0.279162 	-2.12068e-20 6.88028 	-0.280649 	8.22877e-21 6.87299 	-0.283027 	2.9805e-20 6.86562 	-0.285404 	5.13729e-20 6.8584 	-0.287387 	5.23765e-20 6.85029 	-0.288975 	2.64449e-20 6.84211 	-0.290563 	5.09729e-22 6.83456 	-0.293026 	3.8735e-22 6.82702 	-0.295412 	2.52474e-22 6.81982 	-0.297452 	6.14007e-23 6.81178 	-0.299254 	3.8983e-21 6.80329 	-0.300944 	9.64141e-21 6.79546 	-0.303494 	2.72786e-21 6.78784 	-0.305793 	2.02496e-21 6.78032 	-0.307929 	5.37029e-21 6.77254 	-0.310006 	9.66209e-21 6.76372 	-0.311797 	1.87202e-20 6.75561 	-0.314418 	3.2778e-20 6.74784 	-0.31665 	3.10416e-20 6.73998 	-0.31888 	2.92908e-20 6.73204 	-0.32111 	2.75255e-20 6.7233 	-0.323127 	1.70264e-20 6.71505 	-0.325658 	1.07811e-20 6.70692 	-0.327984 	7.81095e-21 6.6987 	-0.330309 	4.84326e-21 6.6904 	-0.332633 	1.87807e-21 6.68192 	-0.334935 	-1.90815e-22 6.68095 	-0.335231 	-1.80347e-21 6.67999 	-0.335506 	-1.17687e-21 6.67903 	-0.335781 	-5.49971e-22 6.67807 	-0.336056 	7.72157e-23 6.67712 	-0.336328 	6.98518e-22 6.67045 	-0.338477 	4.85549e-21 6.66372 	-0.340624 	9.02446e-21 6.65692 	-0.342772 	1.32055e-20 6.65006 	-0.344918 	1.73985e-20 6.64291 	-0.346893 	1.44389e-20 6.63593 	-0.34959 	9.31566e-21 6.62799 	-0.352106 	6.46813e-21 6.61997 	-0.354622 	3.61839e-21 6.61187 	-0.357136 	7.6644e-22 6.60318 	-0.359289 	5.16565e-21 6.59677 	-0.362276 	3.44402e-22 6.58847 	-0.364891 	-2.29345e-21 6.58004 	-0.367499 	-4.88877e-21 6.57135 	-0.369981 	-9.06856e-21 6.56213 	-0.372165 	-1.70445e-20 6.55528 	-0.375234 	-9.53185e-21 6.54761 	-0.378154 	-4.68261e-21 6.53875 	-0.380853 	-3.78921e-21 6.5293 	-0.383232 	-9.63764e-21 6.51962 	-0.385516 	-1.74815e-20 6.51232 	-0.388667 	-3.01112e-20 6.50491 	-0.391817 	-4.27433e-20 6.49579 	-0.394573 	-3.81126e-20 6.48571 	-0.396955 	-1.59861e-20 6.47553 	-0.399337 	6.14476e-21 6.46774 	-0.402569 	2.27229e-20 6.45984 	-0.405798 	3.92978e-20 6.45102 	-0.408669 	3.98764e-20 6.44042 	-0.411146 	2.71804e-20 6.42972 	-0.413622 	1.44737e-20 6.42142 	-0.416931 	2.49047e-20 6.41278 	-0.420121 	3.14775e-20 6.40352 	-0.423043 	2.91722e-20 6.39331 	-0.425794 	2.10329e-20 6.38205 	-0.428361 	6.48767e-21 6.3732 	-0.431743 	1.07043e-21 6.36358 	-0.434804 	2.66556e-22 6.35374 	-0.437807 	2.90963e-22 6.34379 	-0.440808 	3.15571e-22 6.33236 	-0.443541 	3.47077e-21 6.32261 	-0.446841 	9.82627e-21 6.31226 	-0.449922 	7.5552e-21 6.30181 	-0.453 	5.26412e-21 6.29123 	-0.456076 	2.95292e-21 6.28051 	-0.459148 	4.82886e-22 6.28035 	-0.4592 	4.35167e-22 6.28018 	-0.459249 	4.33994e-22 6.28001 	-0.459298 	4.32821e-22 6.27984 	-0.459346 	4.31649e-22 6.27967 	-0.459395 	4.30478e-22 6.26945 	-0.4625 	3.33251e-22 6.25911 	-0.465602 	2.3593e-22 6.24865 	-0.468702 	1.38517e-22 6.23809 	-0.4718 	4.10103e-23 6.22781 	-0.474707 	0 6.21719 	-0.478176 	-8.39591e-22 6.20603 	-0.481391 	-4.15139e-21 6.19475 	-0.484603 	-7.45838e-21 6.18345 	-0.487758 	-9.36226e-21 6.17257 	-0.490639 	-4.40128e-21 6.16144 	-0.494248 	-3.71284e-20 6.1499 	-0.497703 	-5.66387e-20 6.1379 	-0.500971 	-6.00142e-20 6.12625 	-0.503981 	-3.23982e-20 6.11459 	-0.506922 	3.6174e-21 6.10275 	-0.510577 	1.78313e-21 6.09078 	-0.51423 	-3.52219e-23 6.07851 	-0.517542 	0 6.06617 	-0.520533 	0 6.0537 	-0.523523 	0 6.04112 	-0.527215 	0 6.02843 	-0.530877 	0 6.01603 	-0.534246 	0 6.00304 	-0.537378 	0 5.98971 	-0.540406 	0 5.97634 	-0.544123 	0 5.96314 	-0.547596 	-5.58239e-21 5.94989 	-0.550992 	-1.28568e-20 5.9365 	-0.554386 	-2.01398e-20 5.92246 	-0.557528 	-2.74488e-20 5.91201 	-0.560225 	-2.55344e-20 5.90167 	-0.562755 	-2.84551e-20 5.89125 	-0.565282 	-3.13872e-20 5.88075 	-0.567808 	-3.43308e-20 5.87087 	-0.570166 	-3.70913e-20 5.86716 	-0.571086 	-3.91317e-20 5.86344 	-0.572006 	-4.11758e-20 5.85971 	-0.572925 	-4.32238e-20 5.85597 	-0.573845 	-4.52756e-20 5.85235 	-0.574709 	-3.61501e-20 5.8383 	-0.578231 	-2.9252e-20 5.82398 	-0.581659 	-2.13572e-20 5.80952 	-0.585085 	-1.3449e-20 5.79491 	-0.588507 	-5.52726e-21 5.78073 	-0.591663 	-1.19244e-20 5.76608 	-0.595428 	-5.58918e-21 5.75096 	-0.598948 	-9.25625e-22 5.73554 	-0.602361 	3.01653e-21 5.72036 	-0.605575 	-5.48009e-22 5.70522 	-0.60869 	-7.94895e-21 5.68963 	-0.612432 	1.67581e-20 5.67388 	-0.61617 	4.14441e-20 5.6579 	-0.619567 	3.7346e-20 5.64187 	-0.622648 	5.08993e-21 5.62567 	-0.625729 	-2.72036e-20 5.60909 	-0.629431 	-5.84105e-20 5.59244 	-0.63306 	-7.81537e-20 5.57601 	-0.636449 	-5.93193e-20 5.55921 	-0.639686 	-3.11969e-20 5.54192 	-0.642716 	9.79984e-21 5.52431 	-0.646346 	4.82731e-20 5.50697 	-0.649674 	5.40922e-20 5.48945 	-0.652998 	5.98765e-20 5.47177 	-0.656319 	6.56254e-20 5.45382 	-0.659582 	6