# vtk DataFile Version 2.0
track0
ASCII
DATASET POLYDATA
POINTS 11935 float
-0.0205 0.001 1e-05
-0.0202034 0.0010001 1e-05
-0.0199069 0.00100035 1e-05
-0.0196103 0.00100072 1e-05
-0.0193137 0.0010012 1e-05
-0.0190172 0.00100178 1e-05
-0.0187132 0.00100302 1e-05
-0.0184093 0.00100345 1e-05
-0.0181054 0.00100385 1e-05
-0.0178015 0.00100422 1e-05
-0.0174976 0.00100457 1e-05
-0.0172058 0.00100548 1e-05
-0.016914 0.00100571 1e-05
-0.0166222 0.00100595 1e-05
-0.0163305 0.00100621 1e-05
-0.0160387 0.00100648 1e-05
-0.0157586 0.00100728 1e-05
-0.0154784 0.0010076 1e-05
-0.0151983 0.00100797 1e-05
-0.0149182 0.00100839 1e-05
-0.0146381 0.00100885 1e-05
-0.0143692 0.00100973 1e-05
-0.0141002 0.00101028 1e-05
-0.0138313 0.00101087 1e-05
-0.0135624 0.00101151 1e-05
-0.0132934 0.00101219 1e-05
-0.0130353 0.00101315 1e-05
-0.0127771 0.0010139 1e-05
-0.0125189 0.00101468 1e-05
-0.0122607 0.00101549 1e-05
-0.0120025 0.00101634 1e-05
-0.0117547 0.00101736 1e-05
-0.0115068 0.00101825 1e-05
-0.0112589 0.00101915 1e-05
-0.0110111 0.00102009 1e-05
-0.0107632 0.00102105 1e-05
-0.0105252 0.0010221 1e-05
-0.0102873 0.00102308 1e-05
-0.0100493 0.00102407 1e-05
-0.00981133 0.00102508 1e-05
-0.00957337 0.00102611 1e-05
-0.00934491 0.00102718 1e-05
-0.00911645 0.0010282 1e-05
-0.00888799 0.00102924 1e-05
-0.00865954 0.00103029 1e-05
-0.00843108 0.00103136 1e-05
-0.00821175 0.00103242 1e-05
-0.00799242 0.00103347 1e-05
-0.00777309 0.00103453 1e-05
-0.00755376 0.00103559 1e-05
-0.00733443 0.00103667 1e-05
-0.00719045 0.00103738 1e-05
-0.00704647 0.0010381 1e-05
-0.00690248 0.00103882 1e-05
-0.0067585 0.00103954 1e-05
-0.0066155 0.00104025 1e-05
-0.00654872 0.00104059 1e-05
-0.00648194 0.00104093 1e-05
-0.00641516 0.00104126 1e-05
-0.00634838 0.0010416 1e-05
-0.0062816 0.00104194 1e-05
-0.00607944 0.00104297 1e-05
-0.00587729 0.001044 1e-05
-0.00567514 0.00104503 1e-05
-0.00547298 0.00104607 1e-05
-0.00527083 0.00104711 1e-05
-0.00507675 0.0010481 1e-05
-0.00488267 0.00104911 1e-05
-0.0046886 0.00105011 1e-05
-0.00449452 0.00105111 1e-05
-0.00430044 0.00105212 1e-05
-0.00411412 0.00105308 1e-05
-0.0039278 0.00105405 1e-05
-0.00374147 0.00105502 1e-05
-0.00355515 0.00105598 1e-05
-0.00336883 0.00105695 1e-05
-0.00318995 0.00105787 1e-05
-0.00301107 0.0010588 1e-05
-0.00283219 0.00105972 1e-05
-0.00265331 0.00106065 1e-05
-0.00247443 0.00106158 1e-05
-0.0023027 0.00106245 1e-05
-0.00213097 0.00106334 1e-05
-0.00195924 0.00106422 1e-05
-0.0017875 0.0010651 1e-05
-0.00161577 0.00106598 1e-05
-0.0014509 0.00106682 1e-05
-0.00128603 0.00106765 1e-05
-0.00112116 0.00106848 1e-05
-0.000956289 0.00106931 1e-05
-0.000791418 0.00107012 1e-05
-0.000633135 0.00107089 1e-05
-0.000474851 0.00107165 1e-05
-0.000316567 0.00107239 1e-05
-0.000158283 0.00107311 1e-05
0 0.00107381 1e-05
0.000105677 0.00107427 1e-05
0.000211355 0.00107471 1e-05
0.000317032 0.00107514 1e-05
0.00042271 0.00107556 1e-05
0.000528387 0.00107596 1e-05
0.000634886 0.00107634 1e-05
0.000741385 0.00107672 1e-05
0.000847885 0.00107708 1e-05
0.000954384 0.00107744 1e-05
0.00106088 0.00107777 1e-05
0.00116821 0.00107809 1e-05
0.00127554 0.00107841 1e-05
0.00138286 0.00107872 1e-05
0.00149019 0.00107902 1e-05
0.00159752 0.0010793 1e-05
0.00170568 0.00107956 1e-05
0.00181384 0.00107983 1e-05
0.001922 0.00108008 1e-05
0.00203016 0.00108033 1e-05
0.00213833 0.00108056 1e-05
0.00224733 0.00108078 1e-05
0.00235633 0.001081 1e-05
0.00246533 0.00108121 1e-05
0.00257434 0.00108142 1e-05
0.00268334 0.00108161 1e-05
0.00279319 0.00108179 1e-05
0.00290304 0.00108198 1e-05
0.00301289 0.00108216 1e-05
0.00312274 0.00108234 1e-05
0.00323259 0.00108251 1e-05
0.00334329 0.00108266 1e-05
0.003454 0.00108283 1e-05
0.0035647 0.00108298 1e-05
0.0036754 0.00108314 1e-05
0.00378611 0.00108329 1e-05
0.00389767 0.00108343 1e-05
0.00400924 0.00108357 1e-05
0.0041208 0.00108371 1e-05
0.00423237 0.00108385 1e-05
0.00434393 0.00108398 1e-05
0.00445636 0.00108411 1e-05
0.00456879 0.00108424 1e-05
0.00468123 0.00108436 1e-05
0.00479366 0.00108448 1e-05
0.00490609 0.0010846 1e-05
0.0050194 0.00108472 1e-05
0.0051327 0.00108483 1e-05
0.00524601 0.00108494 1e-05
0.00535932 0.00108505 1e-05
0.00547262 0.00108516 1e-05
0.00550072 0.00108518 1e-05
0.00552882 0.00108521 1e-05
0.00555692 0.00108523 1e-05
0.00558502 0.00108526 1e-05
0.00561292 0.00108528 1e-05
0.00569904 0.00108536 1e-05
0.00578517 0.00108543 1e-05
0.0058713 0.0010855 1e-05
0.00595743 0.00108557 1e-05
0.00604356 0.00108564 1e-05
0.00615863 0.00108573 1e-05
0.00627371 0.00108582 1e-05
0.00638878 0.0010859 1e-05
0.00650386 0.00108598 1e-05
0.00661893 0.00108606 1e-05
0.0067349 0.00108613 1e-05
0.00685087 0.0010862 1e-05
0.00696684 0.00108627 1e-05
0.00708281 0.00108634 1e-05
0.00719878 0.0010864 1e-05
0.00731565 0.00108645 1e-05
0.00743252 0.0010865 1e-05
0.00754939 0.00108656 1e-05
0.00766626 0.0010866 1e-05
0.00778313 0.00108665 1e-05
0.00790091 0.00108668 1e-05
0.00801869 0.00108671 1e-05
0.00813647 0.00108674 1e-05
0.00825425 0.00108677 1e-05
0.00837203 0.00108679 1e-05
0.00849073 0.0010868 1e-05
0.00860942 0.00108682 1e-05
0.00872812 0.00108682 1e-05
0.00884682 0.00108683 1e-05
0.00896551 0.00108683 1e-05
0.00908513 0.00108681 1e-05
0.00920475 0.0010868 1e-05
0.00932437 0.00108678 1e-05
0.00944398 0.00108676 1e-05
0.0095636 0.00108674 1e-05
0.00968415 0.00108669 1e-05
0.0098047 0.00108665 1e-05
0.00992525 0.0010866 1e-05
0.0100458 0.00108656 1e-05
0.0101663 0.0010865 1e-05
0.0102878 0.00108642 1e-05
0.0104093 0.00108635 1e-05
0.0105308 0.00108627 1e-05
0.0106523 0.00108619 1e-05
0.0107738 0.00108611 1e-05
0.0108962 0.00108599 1e-05
0.0110186 0.00108589 1e-05
0.0111411 0.00108578 1e-05
0.0112635 0.00108566 1e-05
0.0113859 0.00108554 1e-05
0.0115093 0.00108538 1e-05
0.0116327 0.00108524 1e-05
0.0117561 0.00108509 1e-05
0.0118795 0.00108494 1e-05
0.0120028 0.00108478 1e-05
0.0121272 0.00108458 1e-05
0.0122515 0.0010844 1e-05
0.0123759 0.00108421 1e-05
0.0125002 0.00108401 1e-05
0.0126245 0.00108381 1e-05
0.0127498 0.00108357 1e-05
0.0128752 0.00108334 1e-05
0.0130005 0.0010831 1e-05
0.0131258 0.00108286 1e-05
0.0132511 0.00108261 1e-05
0.0133774 0.00108232 1e-05
0.0135036 0.00108205 1e-05
0.0136299 0.00108177 1e-05
0.0137562 0.00108147 1e-05
0.0138825 0.00108117 1e-05
0.0140098 0.00108084 1e-05
0.014137 0.00108051 1e-05
0.0142643 0.00108017 1e-05
0.0143915 0.00107983 1e-05
0.0145188 0.00107947 1e-05
0.0146471 0.00107908 1e-05
0.0147753 0.0010787 1e-05
0.0149036 0.00107831 1e-05
0.0150318 0.0010779 1e-05
0.0151601 0.00107749 1e-05
0.0152893 0.00107705 1e-05
0.0154186 0.0010766 1e-05
0.0155478 0.00107615 1e-05
0.0156771 0.00107569 1e-05
0.0158063 0.00107521 1e-05
0.0159366 0.00107471 1e-05
0.0160668 0.0010742 1e-05
0.0161971 0.00107368 1e-05
0.0163274 0.00107316 1e-05
0.0164576 0.00107261 1e-05
0.0165889 0.00107205 1e-05
0.0167201 0.00107148 1e-05
0.0168514 0.00107089 1e-05
0.0169827 0.00107029 1e-05
0.0171139 0.00106968 1e-05
0.0172462 0.00106905 1e-05
0.0173785 0.00106841 1e-05
0.0175108 0.00106776 1e-05
0.0176431 0.00106709 1e-05
0.0177754 0.00106641 1e-05
0.0179087 0.00106571 1e-05
0.018042 0.00106499 1e-05
0.0181753 0.00106426 1e-05
0.0183087 0.00106352 1e-05
0.018442 0.00106276 1e-05
0.0185763 0.00106199 1e-05
0.0187107 0.0010612 1e-05
0.018845 0.0010604 1e-05
0.0189794 0.00105958 1e-05
0.0191137 0.00105874 1e-05
0.0192491 0.0010579 1e-05
0.0193845 0.00105703 1e-05
0.0195199 0.00105614 1e-05
0.0196553 0.00105524 1e-05
0.0197907 0.00105433 1e-05
0.0199272 0.00105341 1e-05
0.0200636 0.00105246 1e-05
0.0202001 0.00105149 1e-05
0.0203365 0.0010505 1e-05
0.020473 0.00104951 1e-05
0.0206105 0.00104851 1e-05
0.020748 0.00104748 1e-05
0.0208855 0.00104642 1e-05
0.021023 0.00104534 1e-05
0.0211606 0.00104427 1e-05
0.0212991 0.00104318 1e-05
0.0214377 0.00104207 1e-05
0.0215763 0.00104092 1e-05
0.0217149 0.00103975 1e-05
0.0218535 0.00103859 1e-05
0.0219931 0.00103742 1e-05
0.0221328 0.00103622 1e-05
0.0222724 0.00103498 1e-05
0.0224121 0.00103372 1e-05
0.0225517 0.00103247 1e-05
0.0226925 0.00103121 1e-05
0.0228332 0.00102992 1e-05
0.022974 0.00102858 1e-05
0.0231147 0.00102723 1e-05
0.0232555 0.00102589 1e-05
0.0233973 0.00102454 1e-05
0.0235391 0.00102315 1e-05
0.023681 0.00102173 1e-05
0.0238228 0.00102028 1e-05
0.0239647 0.00101884 1e-05
0.0241076 0.0010174 1e-05
0.0242505 0.00101592 1e-05
0.0243935 0.00101439 1e-05
0.0245364 0.00101285 1e-05
0.0246794 0.00101131 1e-05
0.0248234 0.00100978 1e-05
0.0249675 0.00100819 1e-05
0.0251115 0.00100657 1e-05
0.0252556 0.00100493 1e-05
0.0253996 0.00100329 1e-05
0.0255448 0.00100165 1e-05
0.02569 0.000999971 1e-05
0.0258351 0.000998244 1e-05
0.0259803 0.000996499 1e-05
0.0261255 0.000994762 1e-05
0.0262718 0.00099302 1e-05
0.0264181 0.000991233 1e-05
0.0265644 0.0009894 1e-05
0.0267107 0.00098755 1e-05
0.026857 0.000985707 1e-05
0.0270044 0.000983859 1e-05
0.0271519 0.000981964 1e-05
0.0272993 0.000980025 1e-05
0.0274467 0.000978069 1e-05
0.0275942 0.000976118 1e-05
0.0277428 0.000974158 1e-05
0.0278914 0.000972152 1e-05
0.0280399 0.000970106 1e-05
0.0281885 0.000968043 1e-05
0.0283371 0.000965979 1e-05
0.0284869 0.000963905 1e-05
0.0286366 0.000961784 1e-05
0.0287863 0.000959628 1e-05
0.0289361 0.000957453 1e-05
0.0290858 0.000955272 1e-05
0.0292367 0.00095308 1e-05
0.0293876 0.000950841 1e-05
0.0295385 0.00094857 1e-05
0.0296894 0.00094628 1e-05
0.0298403 0.000943979 1e-05
0.0299924 0.000941664 1e-05
0.0301445 0.000939302 1e-05
0.0302966 0.000936912 1e-05
0.0304486 0.000934503 1e-05
0.0306007 0.000932077 1e-05
0.030754 0.000929635 1e-05
0.0309072 0.000927146 1e-05
0.0310605 0.000924634 1e-05
0.0312138 0.0009221 1e-05
0.031367 0.000919546 1e-05
0.0315215 0.000916973 1e-05
0.0316759 0.000914354 1e-05
0.0318304 0.000911714 1e-05
0.0319848 0.000909052 1e-05
0.0321393 0.000906369 1e-05
0.0322949 0.000903659 1e-05
0.0324506 0.000900909 1e-05
0.0326062 0.000898136 1e-05
0.0327619 0.000895341 1e-05
0.0329175 0.000892523 1e-05
0.0330744 0.000889673 1e-05
0.0332313 0.000886786 1e-05
0.0333881 0.000883876 1e-05
[...]
POINT_DATA 11935
 FIELD attributes 2
p 1 11935 float
-5.44008 -5.43244 -5.42443 -5.41638 -5.4083 -5.40882 -5.38177 -5.39789 -5.41399 -5.43007 -5.49126 -5.49742 -5.53627 -5.57513 -5.614 -5.67563 -5.67491 -5.70196 -5.72903 -5.75612 -5.80269 -5.8065 -5.82989 -5.8533 -5.87672 -5.91489 -5.92411 -5.94588 -5.96765 -5.98943 -6.02067 -6.032 -6.05126 -6.07052 -6.08979 -6.11484 -6.12712 -6.14426 -6.1614 -6.17855 -6.19903 -6.21203 -6.22779 -6.24355 -6.25931 -6.27672 -6.29021 -6.30503 -6.31986 -6.33468 -6.35003 -6.35929 -6.36896 -6.37863 -6.38831 -6.39791 -6.4024 -6.40688 -6.41137 -6.41585 -6.42019 -6.43396 -6.44762 -6.46128 -6.47495 -6.48811 -6.50184 -6.5152 -6.52857 -6.54193 -6.55458 -6.56835 -6.58159 -6.59483 -6.60807 -6.6205 -6.63447 -6.64785 -6.66123 -6.6746 -6.68714 -6.70182 -6.71596 -6.7301 -6.74424 -6.75759 -6.77444 -6.79117 -6.80791 -6.82464 -6.84068 -6.8594 -6.87759 -6.89578 -6.91397 -6.93048 -6.94462 -6.9564 -6.96818 -6.97996 -6.98935 -6.99835 -7.00407 -7.0098 -7.01552 -7.01883 -7.0261 -7.03008 -7.03405 -7.03802 -7.03935 -7.04629 -7.04971 -7.05313 -7.05655 -7.05693 -7.06239 -7.0645 -7.0666 -7.06871 -7.06798 -7.07189 -7.07311 -7.07433 -7.07554 -7.07454 -7.07741 -7.07835 -7.07929 -7.08023 -7.07964 -7.08175 -7.08262 -7.08348 -7.08435 -7.08431 -7.08586 -7.08672 -7.08757 -7.08843 -7.08888 -7.09011 -7.09104 -7.09197 -7.0929 -7.09377 -7.09408 -7.09435 -7.09461 -7.09488 -7.09514 -7.09596 -7.09677 -7.09758 -7.0984 -7.09926 -7.10053 -7.10181 -7.1031 -7.10438 -7.1057 -7.10725 -7.10878 -7.11031 -7.11184 -7.11341 -7.11523 -7.11704 -7.11885 -7.12066 -7.12254 -7.12458 -7.12667 -7.12876 -7.13085 -7.13314 -7.13528 -7.13765 -7.14001 -7.14238 -7.14518 -7.14731 -7.14995 -7.15258 -7.15522 -7.15863 -7.16064 -7.16353 -7.16642 -7.16931 -7.17344 -7.17522 -7.17835 -7.18149 -7.18462 -7.18952 -7.191 -7.19436 -7.19772 -7.20108 -7.20679 -7.20793 -7.21149 -7.21505 -7.21861 -7.22514 -7.22592 -7.22966 -7.23341 -7.23716 -7.24448 -7.2449 -7.24881 -7.25273 -7.25664 -7.26468 -7.2648 -7.26886 -7.27292 -7.27698 -7.28566 -7.28553 -7.28971 -7.2939 -7.29809 -7.30728 -7.307 -7.31129 -7.31559 -7.31988 -7.32945 -7.32922 -7.33349 -7.33787 -7.34262 -7.35205 -7.35223 -7.3562 -7.36064 -7.36583 -7.37495 -7.37558 -7.37929 -7.38377 -7.38931 -7.39804 -7.39914 -7.40263 -7.40713 -7.41292 -7.42118 -7.42276 -7.4261 -7.4306 -7.43653 -7.44429 -7.44633 -7.4496 -7.45409 -7.46006 -7.46728 -7.46976 -7.47301 -7.47747 -7.48336 -7.49004 -7.4929 -7.4962 -7.50058 -7.50629 -7.51243 -7.51562 -7.51899 -7.52329 -7.52872 -7.53433 -7.53777 -7.54125 -7.54545 -7.55053 -7.55563 -7.55926 -7.56289 -7.56697 -7.57159 -7.57621 -7.57995 -7.5837 -7.58763 -7.59179 -7.59596 -7.59974 -7.60352 -7.60728 -7.61102 -7.61476 -7.6185 -7.62225 -7.6258 -7.62914 -7.63248 -7.63613 -7.63978 -7.6431 -7.64607 -7.64904 -7.65253 -7.65602 -7.65909 -7.66172 -7.66435 -7.66763 -7.67091 -7.67372 -7.67603 -7.67833 -7.68135 -7.68433 -7.68684 -7.68888 -7.69087 -7.69357 -7.69616 -7.69835 -7.70016 -7.70182 -7.70417 -7.70632 -7.70816 -7.70972 -7.71106 -7.71301 -7.71469 -7.71616 -7.71745 -7.71844 -7.71996 -7.72115 -7.72222 -7.72321 -7.72384 -7.7249 -7.72558 -7.72623 -7.72688 -7.72714 -7.72768 -7.72788 -7.72808 -7.72828 -7.72821 -7.72817 -7.7279 -7.72763 -7.72736 -7.72692 -7.72629 -7.72551 -7.72473 -7.72396 -7.72309 -7.72185 -7.72054 -7.71923 -7.71792 -7.71658 -7.71532 -7.71403 -7.71275 -7.71146 -7.71024 -7.70965 -7.70907 -7.70849 -7.7079 -7.70731 -7.70491 -7.7025 -7.7001 -7.69769 -7.69524 -7.69228 -7.68926 -7.68624 -7.68323 -7.68013 -7.67657 -7.67292 -7.66926 -7.66561 -7.66183 -7.65766 -7.65334 -7.64903 -7.64471 -7.64023 -7.63539 -7.63042 -7.62543 -7.62039 -7.61524 -7.60969 -7.60407 -7.59838 -7.59261 -7.58677 -7.58051 -7.57421 -7.56783 -7.56132 -7.55479 -7.5478 -7.54081 -7.53371 -7.52649 -7.51928 -7.51155 -7.50383 -7.49603 -7.48813 -7.48024 -7.47179 -7.46335 -7.45485 -7.4463 -7.43775 -7.42859 -7.41944 -7.41026 -7.40108 -7.39191 -7.38207 -7.37223 -7.36241 -7.35263 -7.34287 -7.33238 -7.32193 -7.31151 -7.30114 -7.29084 -7.27975 -7.26877 -7.25782 -7.24687 -7.2361 -7.2245 -7.21308 -7.20166 -7.19024 -7.17898 -7.16702 -7.15521 -7.14341 -7.1316 -7.11987 -7.11308 -7.10636 -7.09964 -7.09292 -7.08638 -7.08099 -7.07561 -7.07022 -7.06484 -7.05956 -7.04721 -7.03498 -7.02275 -7.01052 -6.99866 -6.98593 -6.97363 -6.96134 -6.94904 -6.93745 -6.92442 -6.91216 -6.89992 -6.88791 -6.87658 -6.86367 -6.85124 -6.83921 -6.8278 -6.81678 -6.80415 -6.79161 -6.77994 -6.76939 -6.75884 -6.74664 -6.73444 -6.72339 -6.71348 -6.70357 -6.69198 -6.68039 -6.67004 -6.66094 -6.65184 -6.64104 -6.63042 -6.62106 -6.61264 -6.60452 -6.59468 -6.58563 -6.57733 -6.56944 -6.56247 -6.55377 -6.54653 -6.53946 -6.5324 -6.52654 -6.51961 -6.51394 -6.50826 -6.50258 -6.49751 -6.493 -6.48911 -6.48521 -6.48132 -6.47736 -6.47711 -6.47686 -6.47661 -6.47636 -6.47615 -6.47341 -6.47072 -6.46802 -6.46531 -6.46324 -6.46164 -6.46071 -6.45978 -6.45884 -6.45913 -6.45873 -6.45966 -6.46059 -6.46152 -6.4642 -6.46535 -6.46794 -6.47079 -6.47417 -6.47872 -6.48183 -6.48578 -6.49057 -6.49637 -6.50278 -6.50787 -6.51321 -6.51995 -6.52808 -6.53633 -6.54338 -6.55043 -6.55908 -6.56911 -6.57913 -6.58808 -6.59704 -6.60736 -6.61907 -6.63077 -6.64154 -6.6523 -6.66418 -6.67743 -6.69067 -6.70312 -6.71559 -6.72892 -6.74344 -6.75806 -6.77203 -6.78618 -6.80082 -6.81621 -6.832 -6.84727 -6.86279 -6.87853 -6.89464 -6.91136 -6.9277 -6.94422 -6.9608 -6.97748 -6.99485 -7.01197 -7.0291 -7.04623 -7.06336 -7.08099 -7.09852 -7.11587 -7.13322 -7.15057 -7.16813 -7.1856 -7.20281 -7.22001 -7.23722 -7.25446 -7.27136 -7.28803 -7.3047 -7.32137 -7.33803 -7.3431 -7.34808 -7.35307 -7.35806 -7.36286 -7.37366 -7.38446 -7.39527 -7.40607 -7.41667 -7.43123 -7.44564 -7.46005 -7.47447 -7.48824 -7.50138 -7.51399 -7.52661 -7.53923 -7.55057 -7.56205 -7.57241 -7.58277 -7.59314 -7.60141 -7.61078 -7.61866 -7.62631 -7.63322 -7.63848 -7.64497 -7.6505 -7.65498 -7.6577 -7.65949 -7.66265 -7.6657 -7.66645 -7.66431 -7.66218 -7.66154 -7.6609 -7.65734 -7.6508 -7.64427 -7.63935 -7.63444 -7.62629 -7.61488 -7.60348 -7.5938 -7.58263 -7.56906 -7.55429 -7.53754 -7.52263 -7.50384 -7.48471 -7.4656 -7.44421 -7.42566 -7.40486 -7.38406 -7.36326 -7.34595 -7.34107 -7.33619 -7.33131 -7.32643 -7.32096 -7.29093 -7.26025 -7.22961 -7.19899 -7.16442 -7.13108 -7.09399 -7.05657 -7.01655 -6.97378 -6.93342 -6.89308 -6.84767 -6.79745 -6.74715 -6.69937 -6.65119 -6.59749 -6.54101 -6.48281 -6.42724 -6.3658 -6.304 -6.24221 -6.17929 -6.17017 -6.16016 -6.15015 -6.14013 -6.13038 -6.07177 -6.0132 -5.95467 -5.89619 -5.8321 -5.75996 -5.68498 -5.60837 -5.52607 -5.44236 -5.36158 -5.28084 -5.19375 -5.10244 -5.00985 -4.93301 -4.85082 -4.76777 -4.68474 -4.61284 -4.59722 -4.58161 -4.566 -4.55018 -4.53332 -4.43178 -4.3287 -4.22571 -4.11979 -4.00879 -3.90103 -3.79335 -3.67999 -3.56061 -3.44064 -3.35089 -3.25722 -3.1616 -3.06602 -2.98094 -2.95086 -2.92078 -2.89072 -2.85995 -2.82787 -2.7008 -2.571 -2.44133 -2.30604 -2.16771 -2.03297 -1.89698 -1.75468 -1.61248 -1.46646 -1.43632 -1.40543 -1.3737 -1.34198 -1.31116 -1.19469 -1.07833 -0.962055 -0.842651 -0.719505 -0.567468 -0.415565 -0.257981 -0.0968685 0.0665222 0.123807 0.181951 0.241733 0.301498 0.358533 0.463902 0.569197 0.674415 0.782545 0.893032 1.0609 1.22859 1.40113 1.57641 1.75447 1.80228 1.85044 1.89986 1.94926 1.99698 2.12616 2.25522 2.38417 2.51587 2.64974 2.83115 3.01283 3.19823 3.38341 3.57148 3.57324 3.575 3.57678 3.57857 3.58036 3.76625 3.95188 4.13724 4.3253 4.51743 4.66414 4.81101 4.95954 5.10789 5.24225 5.28947 5.33668 5.38386 5.43167 5.4798 5.67357 5.86699 6.06083 6.25487 6.4536 6.50773 6.56183 6.61547 6.66906 6.72065 6.86194 7.003 7.14357 7.2811 7.42156 7.54238 7.66298 7.77932 7.89473 8.00066 8.07369 8.14664 8.21872 8.28785 8.35787 8.51016 8.66204 8.80572 8.94638 9.0741 9.10681 9.1395 9.17145 9.20191 9.23253 9.38913 9.54535 9.69315 9.83642 9.97128 9.98277 9.99425 10.0054 10.0162 10.027 10.1765 10.3259 10.4697 10.6093 10.7489 10.7505 10.7521 10.7537 10.7552 10.7567 10.8928 11.0291 11.1631 11.2935 11.4215 11.4365 11.4515 11.4661 11.4804 11.4949 11.6097 11.7248 11.8387 11.9499 12.058 12.0941 12.1301 12.1651 12.1997 12.2358 12.3222 12.4088 12.4948 12.5782 12.6595 12.7283 12.7973 12.8636 12.9296 13.003 13.0474 13.0918 13.1362 13.1786 13.2205 13.3273 13.4344 13.5371 13.6389 13.7364 13.7498 13.763 13.7756 13.7882 13.8011 13.8842 13.9674 14.0507 14.1299 14.2065 14.2883 14.369 14.4458 14.5228 14.6187 14.6195 14.6202 14.621 14.6217 14.6224 14.6984 14.7743 14.8502 14.9231 14.9925 15.0595 15.1262 15.1886 15.2508 15.3108 15.335 15.358 15.3804 15.4029 15.428 15.46 15.4919 15.5237 15.5551 15.5846 15.6333 15.6812 15.7287 15.7732 15.8169 15.8577 15.8984 15.9362 15.9733 16.0098 16.0436 16.0749 16.1062 16.1374 16.1682 16.1715 16.1746 16.1777 16.1807 16.1839 16.2073 16.2307 16.254 16.2772 16.2991 16.3207 16.3421 16.3634 16.384 16.4038 16.4208 16.4378 16.4546 16.4703 16.486 16.4992 16.5124 16.5249 16.5371 16.5493 16.5593 16.5691 16.5783 16.5876 16.5968 16.6042 16.6111 16.6179 16.6246 16.6314 16.6365 16.6412 16.6459 16.6506 16.6554 16.658 16.6605 16.663 16.6654 16.6685 16.6689 16.6694 16.6699 16.6703 16.6708 16.6726 16.6744 16.6762 16.6779 16.6797 16.6801 16.6808 16.6815 16.6822 16.6829 16.6823 16.6822 16.682 16.6819 16.6817 16.6803 16.6795 16.6787 16.6779 16.6771 16.6753 16.6739 16.6726 16.6713 16.67 16.6679 16.666 16.6644 16.6628 16.6612 16.6589 16.6567 16.6548 16.653 16.6512 16.6488 16.6465 16.6445 16.6426 16.6407 16.6383 16.6359 16.6339 16.6321 16.6303 16.628 16.6257 16.6238 16.6221 16.6204 16.6184 16.6163 16.6147 16.6133 16.6119 16.6102 16.6086 16.6073 16.6064 16.6055 16.6044 16.6033 16.6027 16.6025 16.6023 16.6021 16.6019 16.6022 16.6031 16.6039 16.605 16.606 16.6077 16.6102 16.6126 16.6155 16.6184 16.6221 16.6266 16.631 16.6363 16.6415 16.6484 16.6572 16.6661 16.676 16.6858 16.6929 16.6987 16.7044 16.7107 16.7168 16.7305 16.7584 16.7862 16.8137 16.8409 16.8391 16.8106 16.782 16.7485 16.7148 16.6746 16.63 16.5852 16.5375 16.4898 16.4426 16.3999 16.3573 16.3129 16.2684 16.2236 16.1795 16.1358 16.0901 16.0439 15.9971 15.9501 15.9028 15.8533 15.8032 15.7528 15.7024 15.6516 15.5985 15.5446 15.4906 15.4366 15.3821 15.325 15.267 15.209 15.151 15.0923 15.0304 14.9676 14.9047 14.8419 14.7784 14.7108 14.6424 14.574 14.5056 14.4365 14.3624 14.2876 14.2128 14.1379 14.0627 13.981 13.8989 13.8168 13.7346 13.6523 13.6198 13.5871 13.5545 13.5218 13.4867 13.4295 13.3723 13.3152 13.258 13.2005 13.1012 13.0016 12.9019 12.8022 12.7017 12.5923 12.482 12.3716 12.2612 12.1493 12.0287 11.9062 11.7837 11.6612 11.5364 11.403 11.2667 11.1303 10.9939 10.854 10.7061 10.5542 10.4023 10.2504 10.0941 9.93022 9.75966 9.58908 9.41849 9.24081 9.05635 8.86667 8.67697 8.48722 8.29211 8.09071 7.87309 7.65436 7.43365 7.19792 6.95449 6.7181 6.48313 6.24988 6.02323 5.78908 5.50241 5.19666 4.86806 4.49101 4.10103 3.79634 3.54227 3.3402 3.2184 3.09217 2.74122 2.14048 1.1565 0