# vtk DataFile Version 2.0
track0
ASCII
DATASET POLYDATA
POINTS 11935 float
-0.0205 0.001 1e-05
-0.0202034 0.0010001 1e-05
-0.0199069 0.00100035 1e-05
-0.0196103 0.00100072 1e-05
-0.0193137 0.0010012 1e-05
-0.0190172 0.00100178 1e-05
-0.0187132 0.00100302 1e-05
-0.0184093 0.00100345 1e-05
-0.0181054 0.00100385 1e-05
-0.0178015 0.00100422 1e-05
-0.0174976 0.00100457 1e-05
-0.0172058 0.00100548 1e-05
-0.016914 0.00100571 1e-05
-0.0166222 0.00100595 1e-05
-0.0163305 0.00100621 1e-05
-0.0160387 0.00100648 1e-05
-0.0157586 0.00100728 1e-05
-0.0154784 0.0010076 1e-05
-0.0151983 0.00100797 1e-05
-0.0149182 0.00100839 1e-05
-0.0146381 0.00100885 1e-05
-0.0143692 0.00100973 1e-05
-0.0141002 0.00101028 1e-05
-0.0138313 0.00101087 1e-05
-0.0135624 0.00101151 1e-05
-0.0132934 0.00101219 1e-05
-0.0130353 0.00101315 1e-05
-0.0127771 0.0010139 1e-05
-0.0125189 0.00101468 1e-05
-0.0122607 0.00101549 1e-05
-0.0120025 0.00101634 1e-05
-0.0117547 0.00101736 1e-05
-0.0115068 0.00101825 1e-05
-0.0112589 0.00101915 1e-05
-0.0110111 0.00102009 1e-05
-0.0107632 0.00102105 1e-05
-0.0105252 0.0010221 1e-05
-0.0102873 0.00102308 1e-05
-0.0100493 0.00102407 1e-05
-0.00981133 0.00102508 1e-05
-0.00957337 0.00102611 1e-05
-0.00934491 0.00102718 1e-05
-0.00911645 0.0010282 1e-05
-0.00888799 0.00102924 1e-05
-0.00865954 0.00103029 1e-05
-0.00843108 0.00103136 1e-05
-0.00821175 0.00103242 1e-05
-0.00799242 0.00103347 1e-05
-0.00777309 0.00103453 1e-05
-0.00755376 0.00103559 1e-05
-0.00733443 0.00103667 1e-05
-0.00719045 0.00103738 1e-05
-0.00704647 0.0010381 1e-05
-0.00690248 0.00103882 1e-05
-0.0067585 0.00103954 1e-05
-0.0066155 0.00104025 1e-05
-0.00654872 0.00104059 1e-05
-0.00648194 0.00104093 1e-05
-0.00641516 0.00104126 1e-05
-0.00634838 0.0010416 1e-05
-0.0062816 0.00104194 1e-05
-0.00607944 0.00104297 1e-05
-0.00587729 0.001044 1e-05
-0.00567514 0.00104503 1e-05
-0.00547298 0.00104607 1e-05
-0.00527083 0.00104711 1e-05
-0.00507675 0.0010481 1e-05
-0.00488267 0.00104911 1e-05
-0.0046886 0.00105011 1e-05
-0.00449452 0.00105111 1e-05
-0.00430044 0.00105212 1e-05
-0.00411412 0.00105308 1e-05
-0.0039278 0.00105405 1e-05
-0.00374147 0.00105502 1e-05
-0.00355515 0.00105598 1e-05
-0.00336883 0.00105695 1e-05
-0.00318995 0.00105787 1e-05
-0.00301107 0.0010588 1e-05
-0.00283219 0.00105972 1e-05
-0.00265331 0.00106065 1e-05
-0.00247443 0.00106158 1e-05
-0.0023027 0.00106245 1e-05
-0.00213097 0.00106334 1e-05
-0.00195924 0.00106422 1e-05
-0.0017875 0.0010651 1e-05
-0.00161577 0.00106598 1e-05
-0.0014509 0.00106682 1e-05
-0.00128603 0.00106765 1e-05
-0.00112116 0.00106848 1e-05
-0.000956289 0.00106931 1e-05
-0.000791418 0.00107012 1e-05
-0.000633135 0.00107089 1e-05
-0.000474851 0.00107165 1e-05
-0.000316567 0.00107239 1e-05
-0.000158283 0.00107311 1e-05
0 0.00107381 1e-05
0.000105677 0.00107427 1e-05
0.000211355 0.00107471 1e-05
0.000317032 0.00107514 1e-05
0.00042271 0.00107556 1e-05
0.000528387 0.00107596 1e-05
0.000634886 0.00107634 1e-05
0.000741385 0.00107672 1e-05
0.000847885 0.00107708 1e-05
0.000954384 0.00107744 1e-05
0.00106088 0.00107777 1e-05
0.00116821 0.00107809 1e-05
0.00127554 0.00107841 1e-05
0.00138286 0.00107872 1e-05
0.00149019 0.00107902 1e-05
0.00159752 0.0010793 1e-05
0.00170568 0.00107956 1e-05
0.00181384 0.00107983 1e-05
0.001922 0.00108008 1e-05
0.00203016 0.00108033 1e-05
0.00213833 0.00108056 1e-05
0.00224733 0.00108078 1e-05
0.00235633 0.001081 1e-05
0.00246533 0.00108121 1e-05
0.00257434 0.00108142 1e-05
0.00268334 0.00108161 1e-05
0.00279319 0.00108179 1e-05
0.00290304 0.00108198 1e-05
0.00301289 0.00108216 1e-05
0.00312274 0.00108234 1e-05
0.00323259 0.00108251 1e-05
0.00334329 0.00108266 1e-05
0.003454 0.00108283 1e-05
0.0035647 0.00108298 1e-05
0.0036754 0.00108314 1e-05
0.00378611 0.00108329 1e-05
0.00389767 0.00108343 1e-05
0.00400924 0.00108357 1e-05
0.0041208 0.00108371 1e-05
0.00423237 0.00108385 1e-05
0.00434393 0.00108398 1e-05
0.00445636 0.00108411 1e-05
0.00456879 0.00108424 1e-05
0.00468123 0.00108436 1e-05
0.00479366 0.00108448 1e-05
0.00490609 0.0010846 1e-05
0.0050194 0.00108472 1e-05
0.0051327 0.00108483 1e-05
0.00524601 0.00108494 1e-05
0.00535932 0.00108505 1e-05
0.00547262 0.00108516 1e-05
0.00550072 0.00108518 1e-05
0.00552882 0.00108521 1e-05
0.00555692 0.00108523 1e-05
0.00558502 0.00108526 1e-05
0.00561292 0.00108528 1e-05
0.00569904 0.00108536 1e-05
0.00578517 0.00108543 1e-05
0.0058713 0.0010855 1e-05
0.00595743 0.00108557 1e-05
0.00604356 0.00108564 1e-05
0.00615863 0.00108573 1e-05
0.00627371 0.00108582 1e-05
0.00638878 0.0010859 1e-05
0.00650386 0.00108598 1e-05
0.00661893 0.00108606 1e-05
0.0067349 0.00108613 1e-05
0.00685087 0.0010862 1e-05
0.00696684 0.00108627 1e-05
0.00708281 0.00108634 1e-05
0.00719878 0.0010864 1e-05
0.00731565 0.00108645 1e-05
0.00743252 0.0010865 1e-05
0.00754939 0.00108656 1e-05
0.00766626 0.0010866 1e-05
0.00778313 0.00108665 1e-05
0.00790091 0.00108668 1e-05
0.00801869 0.00108671 1e-05
0.00813647 0.00108674 1e-05
0.00825425 0.00108677 1e-05
0.00837203 0.00108679 1e-05
0.00849073 0.0010868 1e-05
0.00860942 0.00108682 1e-05
0.00872812 0.00108682 1e-05
0.00884682 0.00108683 1e-05
0.00896551 0.00108683 1e-05
0.00908513 0.00108681 1e-05
0.00920475 0.0010868 1e-05
0.00932437 0.00108678 1e-05
0.00944398 0.00108676 1e-05
0.0095636 0.00108674 1e-05
0.00968415 0.00108669 1e-05
0.0098047 0.00108665 1e-05
0.00992525 0.0010866 1e-05
0.0100458 0.00108656 1e-05
0.0101663 0.0010865 1e-05
0.0102878 0.00108642 1e-05
0.0104093 0.00108635 1e-05
0.0105308 0.00108627 1e-05
0.0106523 0.00108619 1e-05
0.0107738 0.00108611 1e-05
0.0108962 0.00108599 1e-05
0.0110186 0.00108589 1e-05
0.0111411 0.00108578 1e-05
0.0112635 0.00108566 1e-05
0.0113859 0.00108554 1e-05
0.0115093 0.00108538 1e-05
0.0116327 0.00108524 1e-05
0.0117561 0.00108509 1e-05
0.0118795 0.00108494 1e-05
0.0120028 0.00108478 1e-05
0.0121272 0.00108458 1e-05
0.0122515 0.0010844 1e-05
0.0123759 0.00108421 1e-05
0.0125002 0.00108401 1e-05
0.0126245 0.00108381 1e-05
0.0127498 0.00108357 1e-05
0.0128752 0.00108334 1e-05
0.0130005 0.0010831 1e-05
0.0131258 0.00108286 1e-05
0.0132511 0.00108261 1e-05
0.0133774 0.00108232 1e-05
0.0135036 0.00108205 1e-05
0.0136299 0.00108177 1e-05
0.0137562 0.00108147 1e-05
0.0138825 0.00108117 1e-05
0.0140098 0.00108084 1e-05
0.014137 0.00108051 1e-05
0.0142643 0.00108017 1e-05
0.0143915 0.00107983 1e-05
0.0145188 0.00107947 1e-05
0.0146471 0.00107908 1e-05
0.0147753 0.0010787 1e-05
0.0149036 0.00107831 1e-05
0.0150318 0.0010779 1e-05
0.0151601 0.00107749 1e-05
0.0152893 0.00107705 1e-05
0.0154186 0.0010766 1e-05
0.0155478 0.00107615 1e-05
0.0156771 0.00107569 1e-05
0.0158063 0.00107521 1e-05
0.0159366 0.00107471 1e-05
0.0160668 0.0010742 1e-05
0.0161971 0.00107368 1e-05
0.0163274 0.00107316 1e-05
0.0164576 0.00107261 1e-05
0.0165889 0.00107205 1e-05
0.0167201 0.00107148 1e-05
0.0168514 0.00107089 1e-05
0.0169827 0.00107029 1e-05
0.0171139 0.00106968 1e-05
0.0172462 0.00106905 1e-05
0.0173785 0.00106841 1e-05
0.0175108 0.00106776 1e-05
0.0176431 0.00106709 1e-05
0.0177754 0.00106641 1e-05
0.0179087 0.00106571 1e-05
0.018042 0.00106499 1e-05
0.0181753 0.00106426 1e-05
0.0183087 0.00106352 1e-05
0.018442 0.00106276 1e-05
0.0185763 0.00106199 1e-05
0.0187107 0.0010612 1e-05
0.018845 0.0010604 1e-05
0.0189794 0.00105958 1e-05
0.0191137 0.00105874 1e-05
0.0192491 0.0010579 1e-05
0.0193845 0.00105703 1e-05
0.0195199 0.00105614 1e-05
0.0196553 0.00105524 1e-05
0.0197907 0.00105433 1e-05
0.0199272 0.00105341 1e-05
0.0200636 0.00105246 1e-05
0.0202001 0.00105149 1e-05
0.0203365 0.0010505 1e-05
0.020473 0.00104951 1e-05
0.0206105 0.00104851 1e-05
0.020748 0.00104748 1e-05
0.0208855 0.00104642 1e-05
0.021023 0.00104534 1e-05
0.0211606 0.00104427 1e-05
0.0212991 0.00104318 1e-05
0.0214377 0.00104207 1e-05
0.0215763 0.00104092 1e-05
0.0217149 0.00103975 1e-05
0.0218535 0.00103859 1e-05
0.0219931 0.00103742 1e-05
0.0221328 0.00103622 1e-05
0.0222724 0.00103498 1e-05
0.0224121 0.00103372 1e-05
0.0225517 0.00103247 1e-05
0.0226925 0.00103121 1e-05
0.0228332 0.00102992 1e-05
0.022974 0.00102858 1e-05
0.0231147 0.00102723 1e-05
0.0232555 0.00102589 1e-05
0.0233973 0.00102454 1e-05
0.0235391 0.00102315 1e-05
0.023681 0.00102173 1e-05
0.0238228 0.00102028 1e-05
0.0239647 0.00101884 1e-05
0.0241076 0.0010174 1e-05
0.0242505 0.00101592 1e-05
0.0243935 0.00101439 1e-05
0.0245364 0.00101285 1e-05
0.0246794 0.00101131 1e-05
0.0248234 0.00100978 1e-05
0.0249675 0.00100819 1e-05
0.0251115 0.00100657 1e-05
0.0252556 0.00100493 1e-05
0.0253996 0.00100329 1e-05
0.0255448 0.00100165 1e-05
0.02569 0.000999971 1e-05
0.0258351 0.000998244 1e-05
0.0259803 0.000996499 1e-05
0.0261255 0.000994762 1e-05
0.0262718 0.00099302 1e-05
0.0264181 0.000991233 1e-05
0.0265644 0.0009894 1e-05
0.0267107 0.00098755 1e-05
0.026857 0.000985707 1e-05
0.0270044 0.000983859 1e-05
0.0271519 0.000981964 1e-05
0.0272993 0.000980025 1e-05
0.0274467 0.000978069 1e-05
0.0275942 0.000976118 1e-05
0.0277428 0.000974158 1e-05
0.0278914 0.000972152 1e-05
0.0280399 0.000970106 1e-05
0.0281885 0.000968043 1e-05
0.0283371 0.000965979 1e-05
0.0284869 0.000963905 1e-05
0.0286366 0.000961784 1e-05
0.0287863 0.000959628 1e-05
0.0289361 0.000957453 1e-05
0.0290858 0.000955272 1e-05
0.0292367 0.00095308 1e-05
0.0293876 0.000950841 1e-05
0.0295385 0.00094857 1e-05
0.0296894 0.00094628 1e-05
0.0298403 0.000943979 1e-05
0.0299924 0.000941664 1e-05
0.0301445 0.000939302 1e-05
0.0302966 0.000936912 1e-05
0.0304486 0.000934503 1e-05
0.0306007 0.000932077 1e-05
0.030754 0.000929635 1e-05
0.0309072 0.000927146 1e-05
0.0310605 0.000924634 1e-05
0.0312138 0.0009221 1e-05
0.031367 0.000919546 1e-05
0.0315215 0.000916973 1e-05
0.0316759 0.000914354 1e-05
0.0318304 0.000911714 1e-05
0.0319848 0.000909052 1e-05
0.0321393 0.000906369 1e-05
0.0322949 0.000903659 1e-05
0.0324506 0.000900909 1e-05
0.0326062 0.000898136 1e-05
0.0327619 0.000895341 1e-05
0.0329175 0.000892523 1e-05
0.0330744 0.000889673 1e-05
0.0332313 0.000886786 1e-05
0.0333881 0.000883876 1e-05
[...]
POINT_DATA 11935
 FIELD attributes 1
U 3 11935 float
9.9991 	0.0033829 	0 9.99879 	0.00857055 	0 9.99916 	0.0123297 	0 9.99954 	0.0160791 	0 9.99992 	0.0198187 	0 10.003 	0.0406756 	0 10.0034 	0.0140502 	0 10.0062 	0.0131833 	0 10.0091 	0.0123127 	0 10.0119 	0.0114384 	0 10.0152 	0.0311973 	0 10.0177 	0.00790466 	0 10.0202 	0.00837728 	0 10.0228 	0.00885307 	0 10.0254 	0.00933206 	0 10.0256 	0.0285201 	0 10.0288 	0.0115959 	0 10.0302 	0.0132419 	0 10.0316 	0.0148986 	0 10.033 	0.0165658 	0 10.0304 	0.0327853 	0 10.0349 	0.0205259 	0 10.0357 	0.0221269 	0 10.0366 	0.023737 	0 10.0375 	0.0253561 	0 10.0332 	0.0375779 	0 10.0384 	0.0290043 	0 10.0389 	0.0302852 	0 10.0394 	0.0315722 	0 10.0399 	0.0328655 	0 10.0346 	0.0414579 	0 10.04 	0.0358229 	0 10.0401 	0.0368231 	0 10.0402 	0.0378274 	0 10.0404 	0.0388356 	0 10.0348 	0.0445367 	0 10.0399 	0.0411067 	0 10.0398 	0.0418723 	0 10.0396 	0.0426405 	0 10.0395 	0.0434111 	0 10.0345 	0.0469319 	0 10.0386 	0.0450699 	0 10.0383 	0.0456376 	0 10.038 	0.0462068 	0 10.0377 	0.0467775 	0 10.0339 	0.04872 	0 10.0367 	0.0479245 	0 10.0362 	0.0483298 	0 10.0357 	0.0487359 	0 10.0353 	0.0491428 	0 10.0333 	0.0499878 	0 10.0344 	0.0497952 	0 10.034 	0.0499827 	0 10.0336 	0.0501705 	0 10.0333 	0.0503585 	0 10.0329 	0.0505454 	0 10.0327 	0.0506309 	0 10.0325 	0.0507165 	0 10.0324 	0.050802 	0 10.0322 	0.0508877 	0 10.0319 	0.0508792 	0 10.0314 	0.0511169 	0 10.0308 	0.0512813 	0 10.0302 	0.0514459 	0 10.0296 	0.0516108 	0 10.0285 	0.0514518 	0 10.0285 	0.051787 	0 10.0279 	0.0518677 	0 10.0272 	0.0519485 	0 10.0266 	0.0520293 	0 10.0249 	0.0516336 	0 10.0256 	0.0520257 	0 10.0249 	0.0520409 	0 10.0243 	0.0520562 	0 10.0236 	0.0520715 	0 10.0214 	0.0515144 	0 10.0229 	0.0519376 	0 10.0223 	0.0519078 	0 10.0217 	0.051878 	0 10.0211 	0.0518482 	0 10.0182 	0.0511892 	0 10.0206 	0.0516079 	0 10.0202 	0.0515309 	0 10.0197 	0.0514539 	0 10.0193 	0.0513769 	0 10.0159 	0.0506322 	0 10.0194 	0.0508141 	0 10.0192 	0.0504252 	0 10.019 	0.0500362 	0 10.0189 	0.049647 	0 10.015 	0.0485381 	0 10.0196 	0.0480617 	0 10.0198 	0.0468838 	0 10.02 	0.0457053 	0 10.0202 	0.0445264 	0 10.0157 	0.0427136 	0 10.0206 	0.042231 	-3.14801e-21 10.0204 	0.040799 	-8.36748e-21 10.0201 	0.0393665 	-1.35879e-20 10.0199 	0.0379335 	-1.88092e-20 10.0149 	0.035849 	-2.43823e-20 10.0193 	0.0356885 	-3.75435e-20 10.0186 	0.0344187 	-3.73906e-20 10.018 	0.0331483 	-3.72328e-20 10.0173 	0.0318772 	-3.70699e-20 10.0122 	0.0297601 	-2.31266e-20 10.0161 	0.029893 	-2.46624e-20 10.0153 	0.0287343 	-2.78792e-20 10.0144 	0.0275749 	-3.1098e-20 10.0135 	0.0264146 	-3.43188e-20 10.0085 	0.0242203 	-3.81011e-20 10.0119 	0.0245951 	-4.93732e-20 10.0108 	0.0236389 	-4.92185e-20 10.0097 	0.0226819 	-4.90607e-20 10.0086 	0.0217241 	-4.88999e-20 10.0037 	0.0196531 	-3.9826e-20 10.0064 	0.0202082 	-2.89889e-20 10.0051 	0.0195235 	-1.75421e-20 10.0037 	0.0188381 	-6.09562e-21 10.0024 	0.0181522 	5.35035e-21 9.99767 	0.0164008 	1.6864e-20 9.99971 	0.0169816 	1.1e-20 9.99812 	0.0165027 	6.92103e-21 9.99653 	0.0160233 	2.84219e-21 9.99493 	0.0155436 	-1.23651e-21 9.99052 	0.0141591 	-2.055e-21 9.9918 	0.0146308 	3.94399e-21 9.98998 	0.0142734 	4.67343e-21 9.98816 	0.0139158 	5.40092e-21 9.98634 	0.0135578 	6.12645e-21 9.98226 	0.012521 	9.33997e-22 9.98271 	0.0128186 	1.56115e-20 9.98065 	0.0125288 	1.90413e-20 9.97857 	0.0122388 	2.24682e-20 9.9765 	0.0119486 	2.5892e-20 9.97279 	0.01122 	1.9551e-20 9.97231 	0.0113283 	1.65209e-20 9.96996 	0.0110716 	1.23293e-20 9.9676 	0.0108147 	8.13779e-21 9.96525 	0.0105577 	3.94646e-21 9.96193 	0.010082 	-5.03008e-22 9.96039 	0.0100121 	5.79577e-21 9.95773 	0.00976417 	1.19433e-20 9.95506 	0.00951606 	1.80911e-20 9.95239 	0.0092678 	2.4239e-20 9.94952 	0.00898163 	3.03372e-20 9.94902 	0.0089495 	2.89062e-20 9.94828 	0.00888674 	2.74261e-20 9.94754 	0.00882397 	2.59459e-20 9.9468 	0.0087612 	2.44658e-20 9.94607 	0.00869885 	2.29961e-20 9.94377 	0.00850413 	1.8746e-20 9.94147 	0.00830933 	1.44967e-20 9.93917 	0.00811445 	1.02483e-20 9.93687 	0.00791949 	6.00087e-21 9.93074 	0.00770169 	9.39043e-23 9.93099 	0.00746948 	-8.09354e-21 9.92757 	0.00719506 	-1.46303e-20 9.92413 	0.0069205 	-2.11688e-20 9.9207 	0.00664581 	-2.77089e-20 9.90793 	0.00622415 	-3.03551e-20 9.91304 	0.00610508 	-1.82373e-20 9.9092 	0.00580749 	-6.11745e-21 9.90535 	0.00550976 	6.00236e-21 9.9015 	0.00521191 	1.81222e-20 9.88241 	0.00456467 	2.91855e-20 9.89267 	0.00461565 	4.01915e-20 9.88839 	0.00429022 	4.56542e-20 9.8841 	0.00396466 	5.11184e-20 9.87981 	0.00363896 	5.6584e-20 9.85409 	0.00271451 	5.26607e-20 9.8697 	0.00296515 	4.63833e-20 9.86495 	0.00260983 	4.01775e-20 9.86019 	0.00225436 	3.39709e-20 9.85544 	0.00189874 	2.77634e-20 9.82294 	0.000676627 	2.44252e-20 9.84393 	0.00113233 	1.23913e-20 9.8387 	0.000746292 	-2.02751e-21 9.83346 	0.00036008 	-1.64461e-20 9.82822 	-2.63011e-05 	-3.08644e-20 9.78895 	-0.00154121 	-3.9568e-20 9.81523 	-0.000895163 	-2.50352e-20 9.8095 	-0.00131249 	-2.43169e-20 9.80377 	-0.00173002 	-2.35945e-20 9.79803 	-0.00214774 	-2.28679e-20 9.75218 	-0.00393093 	-3.99388e-20 9.78351 	-0.00312462 	-3.398e-20 9.77728 	-0.00357375 	-2.44631e-20 9.77104 	-0.00402312 	-1.49456e-20 9.7648 	-0.00447272 	-5.42745e-21 9.71271 	-0.00648495 	0 9.7487 	-0.00555927 	-2.82963e-21 9.74197 	-0.00604074 	-7.88187e-21 9.73524 	-0.00652249 	-1.29337e-20 9.72849 	-0.00700452 	-1.79852e-20 9.67068 	-0.00919622 	-1.78826e-20 9.71083 	-0.00819909 	-2.04443e-20 9.70361 	-0.0087135 	-2.03368e-20 9.69638 	-0.00922826 	-2.02285e-20 9.68914 	-0.00974335 	-2.01194e-20 9.62622 	-0.0120584 	-1.89315e-20 9.66992 	-0.0110417 	-1.76214e-20 9.66222 	-0.0115897 	-1.2405e-20 9.65452 	-0.0121382 	-7.18816e-21 9.6468 	-0.0126871 	-1.9709e-21 9.57954 	-0.0150657 	-2.17637e-21 9.62609 	-0.014083 	-3.34426e-21 9.61793 	-0.0146654 	-1.2601e-20 9.60976 	-0.0152482 	-2.18569e-20 9.60158 	-0.0158316 	-3.11119e-20 9.53081 	-0.0182128 	-3.39272e-20 9.57948 	-0.0173174 	-7.41151e-23 9.57088 	-0.0179347 	8.23852e-22 9.56226 	-0.0185527 	1.7284e-21 9.55363 	-0.0191712 	2.63954e-21 9.48024 	-0.0214943 	-3.29103e-20 9.53026 	-0.020738 	-3.04528e-20 9.52124 	-0.0213908 	-2.08297e-20 9.51221 	-0.0220443 	-1.12057e-20 9.50316 	-0.0226984 	-1.58061e-21 9.42806 	-0.0249046 	0 9.47865 	-0.0243368 	0 9.46924 	-0.0250252 	0 9.45981 	-0.0257144 	0 9.45037 	-0.0264042 	0 9.37446 	-0.0284376 	0 9.4249 	-0.0281042 	5.88723e-22 9.41512 	-0.0288281 	1.05818e-20 9.40532 	-0.0295527 	2.05736e-20 9.39551 	-0.0302782 	3.05641e-20 9.31966 	-0.0320864 	4.05804e-20 9.36783 	-0.0320491 	3.02621e-20 9.35914 	-0.0327881 	3.94429e-20 9.349 	-0.0335477 	4.91125e-20 9.33433 	-0.034362 	5.93096e-20 9.26385 	-0.0358435 	7.60772e-20 9.30612 	-0.0361542 	5.85648e-20 9.30157 	-0.0368929 	4.7078e-20 9.29112 	-0.0376864 	3.63457e-20 9.27192 	-0.0385396 	2.84224e-20 9.20723 	-0.0397003 	3.51672e-20 9.24384 	-0.0403404 	2.79735e-20 9.2427 	-0.0411278 	1.48039e-20 9.23195 	-0.0419535 	1.14606e-22 9.20908 	-0.042788 	-1.13191e-20 9.14999 	-0.0436466 	-1.30053e-20 9.18123 	-0.0445935 	3.47793e-20 9.18279 	-0.045476 	4.97288e-20 9.17177 	-0.046332 	5.07765e-20 9.14606 	-0.0470929 	3.51069e-20 9.09228 	-0.0476712 	-1.25225e-20 9.11852 	-0.0489 	-1.055e-20 9.12213 	-0.0499207 	-7.04286e-21 9.11087 	-0.050805 	-2.52757e-21 9.08308 	-0.0514426 	0 9.03428 	-0.0517658 	0 9.05592 	-0.0532503 	0 9.06097 	-0.054448 	0 9.04949 	-0.0553591 	0 9.02032 	-0.0558294 	0 8.97614 	-0.0559251 	0 8.99358 	-0.0576377 	0 8.99956 	-0.0590458 	0 8.98787 	-0.0599819 	0 8.95794 	-0.0602473 	0 8.91797 	-0.0601436 	0 8.93163 	-0.0620554 	0 8.9381 	-0.0637008 	1.83542e-21 8.92623 	-0.0646599 	8.37354e-21 8.89606 	-0.0646895 	2.3058e-20 8.8599 	-0.064415 	4.04069e-20 8.8702 	-0.066497 	1.56468e-19 8.87678 	-0.0683998 	2.53091e-19 8.86476 	-0.0693797 	2.50607e-19 8.83478 	-0.0691505 	1.48124e-19 8.80202 	-0.0687339 	3.01583e-20 8.80935 	-0.0709575 	-2.89088e-20 8.81577 	-0.0731313 	-8.57898e-20 8.80361 	-0.0741302 	-9.3466e-20 8.77417 	-0.0736269 	-5.19768e-20 8.74442 	-0.0730965 	-9.60872e-21 8.74915 	-0.0754342 	-7.229e-21 8.75379 	-0.0777745 	-4.84552e-21 8.74139 	-0.0787335 	8.52628e-21 8.71429 	-0.0781169 	1.52034e-20 8.6872 	-0.0774999 	2.18814e-20 8.68966 	-0.0799259 	1.45681e-20 8.69203 	-0.0823544 	7.24905e-21 8.67998 	-0.0832977 	1.83295e-20 8.65518 	-0.0826205 	4.94904e-20 8.6304 	-0.0819429 	8.06527e-20 8.6309 	-0.084433 	1.35065e-19 8.63131 	-0.0869258 	1.89473e-19 8.61967 	-0.0878529 	1.76919e-19 8.59687 	-0.087139 	1.0276e-19 8.57409 	-0.0864246 	2.85991e-20 8.5729 	-0.0889571 	1.71319e-20 8.57162 	-0.0914922 	5.6693e-21 8.56042 	-0.0924034 	-6.30791e-21 8.53935 	-0.0916743 	-1.88527e-20 8.51829 	-0.0909447 	-3.13984e-20 8.51565 	-0.0934999 	-1.84728e-20 8.51292 	-0.0960578 	-5.54369e-21 8.5022 	-0.0969537 	3.4047e-21 8.4826 	-0.0962288 	1.28464e-20 8.46303 	-0.0955034 	2.22893e-20 8.45915 	-0.0980648 	1.22892e-20 8.45517 	-0.100629 	2.28432e-21 8.44495 	-0.101511 	9.68747e-21 8.42663 	-0.100808 	1.91572e-20 8.40832 	-0.100104 	2.86256e-20 8.40337 	-0.102659 	6.15405e-20 8.39831 	-0.105216 	9.44643e-20 8.38862 	-0.106087 	9.20562e-20 8.37138 	-0.105421 	4.78446e-20 8.35416 	-0.104754 	3.62943e-21 8.34828 	-0.107291 	8.06933e-21 8.34204 	-0.109708 	1.05434e-20 8.33241 	-0.110535 	-1.27714e-20 8.31683 	-0.110076 	-3.19094e-20 8.30053 	-0.109459 	-5.05313e-20 8.29385 	-0.11197 	-1.54709e-19 8.28643 	-0.114103 	-2.33214e-19 8.27682 	-0.114949 	-2.24706e-19 8.26293 	-0.114781 	-1.43372e-19 8.24742 	-0.114222 	-3.3995e-20 8.24003 	-0.116701 	-2.09977e-20 8.23174 	-0.118553 	-9.31297e-21 8.22212 	-0.119421 	3.11821e-22 8.20963 	-0.119543 	1.36908e-20 8.19479 	-0.119049 	3.01655e-20 8.18676 	-0.121491 	5.2923e-20 8.17784 	-0.123071 	5.67336e-20 8.1682 	-0.12396 	4.53636e-20 8.15684 	-0.124365 	2.5544e-20 8.14257 	-0.123942 	-8.75281e-21 8.13398 	-0.126344 	-9.4848e-20 8.12462 	-0.127663 	-1.18603e-19 8.11494 	-0.128573 	-1.1884e-19 8.10449 	-0.129253 	-1.06577e-19 8.09071 	-0.128901 	-3.83463e-20 8.08161 	-0.131263 	-2.84513e-20 8.07198 	-0.132335 	-3.02488e-20 8.06225 	-0.133266 	-3.33197e-20 8.05249 	-0.134199 	-3.63955e-20 8.03916 	-0.133931 	-4.92749e-20 8.02958 	-0.13614 	-1.08299e-19 8.01982 	-0.137092 	-1.03758e-19 8.01003 	-0.138045 	-9.92044e-20 8.00019 	-0.138999 	-9.4638e-20 7.98784 	-0.139034 	-4.09985e-20 7.97789 	-0.140965 	-3.14949e-20 7.96805 	-0.141939 	-2.22675e-20 7.95818 	-0.142914 	-1.30423e-20 7.94826 	-0.143889 	-3.81955e-21 7.93668 	-0.144212 	5.04421e-21 7.92651 	-0.145882 	-1.17172e-21 7.91657 	-0.146877 	-3.71695e-21 7.90659 	-0.147872 	-6.26279e-21 7.89657 	-0.148868 	-8.80923e-21 7.88561 	-0.149465 	-3.28358e-21 7.87532 	-0.150889 	8.85607e-21 7.86527 	-0.151903 	1.90243e-20 7.85517 	-0.152917 	2.91845e-20 7.84503 	-0.153932 	3.93368e-20 7.83453 	-0.154789 	4.50238e-20 7.82743 	-0.155657 	4.85113e-20 7.82045 	-0.156363 	4.974e-20 7.81346 	-0.15707 	5.09668e-20 7.80645 	-0.157777 	5.21917e-20 7.79973 	-0.158452 	5.33593e-20 7.79628 	-0.158785 	5.46759e-20 7.79283 	-0.159119 	5.59935e-20 7.78936 	-0.159452 	5.73122e-20 7.7859 	-0.159786 	5.86319e-20 7.78294 	-0.160051 	5.67995e-20 7.77192 	-0.161171 	4.44522e-20 7.76112 	-0.162223 	3.24408e-20 7.75028 	-0.163277 	2.0426e-20 7.73938 	-0.164332 	8.40777e-21 7.73056 	-0.165107 	0 7.71851 	-0.166448 	0 7.70754 	-0.167514 	0 7.69652 	-0.168581 	0 7.68545 	-0.169649 	0 7.67805 	-0.170232 	0 7.66495 	-0.17179 	1.67482e-21 7.65379 	-0.172867 	5.75948e-21 7.64258 	-0.173944 	9.84276e-21 7.63132 	-0.175022 	1.39247e-20 7.62532 	-0.175413 	1.79705e-20 7.61114 	-0.177184 	4.37823e-20 7.59978 	-0.178268 	4.5149e-20 7.58837 	-0.179352 	4.6524e-20 7.57706 	-0.180417 	4.71934e-20 7.57226 	-0.180635 	1.68706e-20 7.55745 	-0.182509 	1.23848e-20 7.54542 	-0.183702 	4.47047e-21 7.53379 	-0.184789 	-3.98061e-21 7.52393 	-0.185643 	-1.11721e-20 7.51883 	-0.185883 	-1.50519e-20 7.50383 	-0.187742 	-4.36472e-20 7.49065 	-0.189154 	-5.43362e-20 7.47878 	-0.19024 	-5.19924e-20 7.47036 	-0.190882 	-3.33269e-20 7.46493 	-0.191137 	-4.61546e-22 7.44974 	-0.192978 	-3.2536e-20 7.43538 	-0.194604 	-5.49337e-20 7.42326 	-0.195685 	-5.28703e-20 7.41625 	-0.196112 	-2.35893e-20 7.41051 	-0.196378 	1.24763e-20 7.3951 	-0.198197 	8.21675e-21 7.37961 	-0.200017 	3.95503e-21 7.36763 	-0.201044 	-7.08124e-21 7.36156 	-0.201313 	-1.4339e-20 7.35549 	-0.201581 	-2.15963e-20 7.33985 	-0.203374 	-1.34502e-20 7.32413 	-0.205168 	-5.29989e-21 7.31264 	-0.206193 	-4.83748e-21 7.30625 	-0.206458 	-1.21274e-20 7.29984 	-0.206723 	-1.9417e-20 7.28396 	-0.208485 	-1.12043e-20 7.268 	-0.210248 	-2.98729e-21 7.25698 	-0.211268 	1.19148e-21 7.25025 	-0.211522 	4.65876e-21 7.24351 	-0.211777 	8.12587e-21 7.22738 	-0.213503 	3.34837e-20 7.21117 	-0.21523 	5.88392e-20 7.20061 	-0.216241 	5.87116e-20 7.19355 	-0.216478 	3.2864e-20 7.18647 	-0.216715 	7.014e-21 7.17008 	-0.2184 	3.07616e-21 7.155 	-0.219913 	-1.6447e-21 7.14454 	-0.220845 	-8.99957e-21 7.13612 	-0.221294 	-2.28486e-20 7.12871 	-0.221506 	-3.98939e-20 7.11206 	-0.223145 	-1.05372e-19 7.09854 	-0.224385 	-1.33503e-19 7.08779 	-0.225277 	-1.29074e-19 7.07798 	-0.225941 	-1.04938e-19 7.07024 	-0.226119 	-3.89457e-20 7.05331 	-0.227706 	-2.14033e-20 7.04138 	-0.228665 	-1.32604e-20 7.03033 	-0.22951 	-6.83097e-21 7.01924 	-0.230355 	-4.03792e-22 7.01106 	-0.230521 	-3.14489e-21 6.99484 	-0.23193 	-2.18443e-20 6.98355 	-0.23272 	-2.0073e-20 6.97221 	-0.23351 	-1.82935e-20 6.96083 	-0.234301 	-1.65057e-20 6.95123 	-0.234678 	-2.06288e-21 6.93666 	-0.235785 	-1.9651e-22 6.92509 	-0.236513 	-1.44593e-22 6.91348 	-0.237241 	-9.2692e-23 6.90183 	-0.23797 	-4.08088e-23 6.8908 	-0.238551 	0 6.88316 	-0.239053 	-2.58412e-23 6.8766 	-0.239419 	-6.45311e-23 6.87002 	-0.239785 	-1.03227e-22 6.86344 	-0.240151 	-1.41928e-22 6.85701 	-0.240508 	-1.79651e-22 6.85148 	-0.240809 	-2.06518e-22 6.84595 	-0.24111 	-2.33381e-22 6.84041 	-0.241411 	-2.6024e-22 6.83486 	-0.241713 	-2.87094e-22 6.82959 	-0.241918 	1.8583e-22 6.8172 	-0.24262 	5.52129e-21 6.80467 	-0.243216 	7.39472e-21 6.79211 	-0.243813 	9.27535e-21 6.7795 	-0.24441 	1.11632e-20 6.76784 	-0.244693 	1.51485e-21 6.75542 	-0.24555 	-1.42848e-20 6.74267 	-0.246063 	-1.59955e-20 6.72989 	-0.246576 	-1.77127e-20 6.71708 	-0.24709 	-1.94366e-20 6.70595 	-0.247064 	2.52924e-21 6.69346 	-0.248051 	2.92117e-22 6.68055 	-0.24849 	1.44987e-22 6.66759 	-0.248913 	6.2246e-23 6.65509 	-0.249183 	6.82894e-22 6.64409 	-0.248986 	3.43851e-21 6.63141 	-0.249869 	1.08942e-21 6.61849 	-0.250453 	0 6.60539 	-0.250779 	0 6.59355 	-0.250714 	0 6.58249 	-0.25041 	0 6.56965 	-0.251183 	0 6.55673 	-0.251903 	-4.4186e-22 6.54353 	-0.252125 	-5.05637e-21 6.53245 	-0.251709 	-9.69079e-21 6.52138 	-0.25129 	-1.43256e-20 6.50843 	-0.251945 	-8.8838e-21 6.49544 	-0.252602 	-3.4402e-21 6.4831 	-0.252662 	-3.92012e-21 6.47208 	-0.25212 	-1.10703e-20 6.46106 	-0.251577 	-1.8221e-20 6.44807 	-0.252109 	-2.95588e-20 6.43503 	-0.252642 	-4.08957e-20 6.42366 	-0.25257 	-3.80694e-20 6.41275 	-0.251898 	-1.93257e-20 6.40184 	-0.251227 	-5.81066e-22 6.38886 	-0.25163 	-4.44088e-22 6.37616 	-0.251946 	2.98637e-22 6.36551 	-0.251675 	5.06663e-21 6.35478 	-0.251001 	1.28173e-20 6.34405 	-0.250196 	2.15375e-20 6.33116 	-0.250466 	1.27757e-20 6.3195 	-0.250384 	6.49203e-21 6.30903 	-0.249967 	2.56342e-21 6.29855 	-0.24939 	2.35645e-21 6.28805 	-0.248448 	1.05926e-20 6.27533 	-0.248582 	-1.61349e-20 6.26484 	-0.248091 	-1.96195e-20 6.25462 	-0.247526 	-2.03424e-20 6.24441 	-0.246961 	-2.10661e-20 6.23422 	-0.245955 	-4.94099e-21 6.22245 	-0.245758 	5.00612e-21 6.21255 	-0.245046 	5.6715e-21 6.20265 	-0.244334 	6.33881e-21 6.19277 	-0.243622 	7.00807e-21 6.18294 	-0.242702 	6.27711e-22 6.17307 	-0.242149 	5.39548e-22 6.16413 	-0.241345 	4.1543e-22 6.15521 	-0.240541 	2.91292e-22 6.1463 	-0.239738 	1.67134e-22 6.13728 	-0.238922 	4.12069e-23 6.13678 	-0.238874 	3.2374e-23 6.13628 	-0.238825 	2.35413e-23 6.13578 	-0.238776 	1.47085e-23 6.13528 	-0.238727 	5.87591e-24 6.13481 	-0.238663 	-1.45499e-22 6.12646 	-0.23769 	1.69211e-21 6.11811 	-0.236705 	3.42286e-21 6.10978 	-0.235719 	5.15399e-21 6.10148 	-0.234734 	6.8855e-21 6.09371 	-0.233465 	7.30138e-21 6.08616 	-0.232576 	7.65915e-21 6.07832 	-0.231468 	7.40338e-21 6.07051 	-0.23036 	7.14852e-21 6.06271 	-0.229252 	6.89459e-21 6.05596 	-0.227602 	5.6268e-21 6.04924 	-0.226792 	5.98189e-21 6.04197 	-0.225579 	3.86975e-21 6.03472 	-0.224365 	1.7581e-21 6.02751 	-0.223149 	-3.58077e-22 6.02179 	-0.221154 	-3.88179e-21 6.01583 	-0.220345 	1.24654e-20 6.00929 	-0.21912 	1.70242e-20 6.00267 	-0.217823 	1.95351e-20 5.99654 	-0.216284 	1.85787e-20 5.99141 	-0.214226 	1.0202e-20 5.98611 	-0.21333 	5.53246e-21 5.98048 	-0.212207 	2.36199e-21 5.97454 	-0.210854 	7.08763e-22 5.96948 	-0.209042 	2.19054e-21 5.96498 	-0.206954 	5.55414e-21 5.96038 	-0.206001 	2.58109e-21 5.95569 	-0.204984 	-1.84169e-22 5.95045 	-0.203609 	-1.80741e-21 5.94644 	-0.201584 	-6.29032e-21 5.94259 	-0.199505 	-1.10137e-20 5.93872 	-0.198531 	-6.45448e-21 5.93486 	-0.197558 	-1.89484e-21 5.93073 	-0.196126 	-1.84121e-21 5.92747 	-0.194099 	-6.49294e-21 5.92427 	-0.192073 	-1.11435e-20 5.92114 	-0.191119 	-1.877e-20 5.91804 	-0.190166 	-2.63961e-20 5.91515 	-0.18873 	-2.34744e-20 5.91255 	-0.186804 	-9.91597e-21 5.91 	-0.184879 	3.64276e-21 5.90762 	-0.183991 	1.38999e-20 5.90526 	-0.183103 	2.41574e-20 5.90356 	-0.181714 	2.48028e-20 5.90159 	-0.179941 	1.73111e-20 5.89967 	-0.178168 	9.82212e-21 5.89804 	-0.177396 	1.66448e-20 5.89644 	-0.176613 	2.33289e-20 5.89577 	-0.175314 	2.26617e-20 5.89446 	-0.173769 	1.44733e-20 5.89315 	-0.172203 	5.64396e-21 5.89224 	-0.171598 	2.4389e-21 5.89156 	-0.170866 	1.01798e-22 5.8915 	-0.169787 	1.06892e-22 5.89098 	-0.168563 	1.96232e-21 5.89023 	-0.16726 	4.83461e-21 5.89002 	-0.166879 	1.31174e-20 5.89016 	-0.166281 	1.68559e-20 5.89066 	-0.165479 	1.62999e-20 5.89089 	-0.164607 	1.26828e-20 5.89066 	-0.163623 	4.05771e-21 5.8911 	-0.163523 	9.28852e-22 5.89196 	-0.163145 	1.0801e-22 5.89298 	-0.162675 	5.05401e-23 5.89391 	-0.162189 	1.72855e-22 5.89415 	-0.161579 	1.60485e-21 5.89519 	-0.161815 	2.47189e-23 5.89665 	-0.161738 	-2.80144e-21 5.89812 	-0.161656 	-5.6473e-21 5.89959 	-0.161575 	-8.49306e-21 5.90035 	-0.161405 	-1.01264e-20 5.90199 	-0.161974 	-9.382e-21 5.90386 	-0.162333 	-9.65932e-21 5.90572 	-0.162692 	-9.93718e-21 5.90758 	-0.16305 	-1.02156e-20 5.9089 	-0.163369 	-1.12165e-20 5.91101 	-0.16434 	-9.48498e-21 5.91321 	-0.165189 	-6.88274e-21 5.91539 	-0.166036 	-4.28121e-21 5.91755 	-0.166883 	-1.68039e-21 5.91937 	-0.167719 	0 5.92183 	-0.169158 	0 5.92428 	-0.17054 	0 5.9267 	-0.17192 	0 5.92908 	-0.173299 	0 5.93134 	-0.174677 	0 5.93219 	-0.175308 	0 5.93303 	-0.175928 	0 5.93387 	-0.176549 	0 5.9347 	-0.177169 	0 5.93549 	-0.177766 	0 5.93735 	-0.179087 	0 5.93919 	-0.180407 	0 5.941 	-0.181725 	0 5.94279 	-0.183043 	0 5.9447 	-0.184352 	-9.27924e-22 5.94759 	-0.186868 	3.95896e-23 5.95042 	-0.189401 	8.81863e-23 5.95318 	-0.19193 	1.36743e-22 5.95587 	-0.194456 	1.85259e-22 5.95882 	-0.196973 	-2.74953e-21 5.96177 	-0.200081 	-5.28728e-21 5.96459 	-0.203244 	-5.92816e-21 5.96732 	-0.206402 	-6.57965e-21 5.96999 	-0.209556 	-7.24174e-21 5.97299 	-0.212719 	-8.07784e-22 5.97594 	-0.216428 	-4.13643e-22 5.97866 	-0.220243 	-3.11864e-21 5.98129 	-0.224053 	-5.82031e-21 5.98382 	-0.227857 	-8.51866e-21 5.98674 	-0.231702 	-8.39e-21 5.98962 	-0.236039 	-7.90186e-21 5.99218 	-0.240504 	-7.50929e-21 5.99459 	-0.244983 	-7.1246e-21 5.99702 	-0.249477 	-8.53463e-21 5.9996 	-0.254014 	-1.39586e-20 6.00226 	-0.259026 	-8.44844e-21 6.00465 	-0.264111 	-6.57541e-21 6.00677 	-0.269273 	-8.56619e-21 6.00894 	-0.274487 	-1.65082e-20 6.01108 	-0.279727 	-2.7583e-20 6.01343 	-0.285429 	-6.06582e-20 6.01562 	-0.291131 	-9.24175e-20 6.01734 	-0.296992 	-9.87897e-20 6.01908 	-0.302947 	-5.93257e-20 6.02068 	-0.308896 	-1.98164e-20 6.02263 	-0.3153 	-5.64384e-20 6.02441 	-0.321693 	-9.30266e-20 6.02583 	-0.328229 	-8.87283e-20 6.02696 	-0.334897 	-4.3835e-20 6.02792 	-0.34155