# vtk DataFile Version 2.0
track0
ASCII
DATASET POLYDATA
POINTS 11920 float
-0.0205 0.001 1e-05
-0.0202034 0.0010001 1e-05
-0.0199069 0.00100035 1e-05
-0.0196103 0.00100072 1e-05
-0.0193137 0.0010012 1e-05
-0.0190172 0.00100179 1e-05
-0.0187132 0.00100302 1e-05
-0.0184093 0.00100345 1e-05
-0.0181054 0.00100385 1e-05
-0.0178015 0.00100422 1e-05
-0.0174976 0.00100457 1e-05
-0.0172058 0.00100548 1e-05
-0.016914 0.00100571 1e-05
-0.0166222 0.00100596 1e-05
-0.0163305 0.00100621 1e-05
-0.0160387 0.00100649 1e-05
-0.0157586 0.00100728 1e-05
-0.0154784 0.00100761 1e-05
-0.0151983 0.00100798 1e-05
-0.0149182 0.00100839 1e-05
-0.0146381 0.00100886 1e-05
-0.0143692 0.00100974 1e-05
-0.0141002 0.00101029 1e-05
-0.0138313 0.00101088 1e-05
-0.0135624 0.00101152 1e-05
-0.0132934 0.0010122 1e-05
-0.0130353 0.00101317 1e-05
-0.0127771 0.00101391 1e-05
-0.0125189 0.00101469 1e-05
-0.0122607 0.00101551 1e-05
-0.0120025 0.00101635 1e-05
-0.0117547 0.00101738 1e-05
-0.0115068 0.00101826 1e-05
-0.0112589 0.00101917 1e-05
-0.0110111 0.00102011 1e-05
-0.0107632 0.00102107 1e-05
-0.0105252 0.00102213 1e-05
-0.0102873 0.0010231 1e-05
-0.0100493 0.0010241 1e-05
-0.00981133 0.00102511 1e-05
-0.00957337 0.00102614 1e-05
-0.00934491 0.00102721 1e-05
-0.00911645 0.00102824 1e-05
-0.00888799 0.00102928 1e-05
-0.00865954 0.00103033 1e-05
-0.00843108 0.0010314 1e-05
-0.00821175 0.00103247 1e-05
-0.00799242 0.00103352 1e-05
-0.00777309 0.00103457 1e-05
-0.00755376 0.00103564 1e-05
-0.00733443 0.00103672 1e-05
-0.00719291 0.00103743 1e-05
-0.00705138 0.00103813 1e-05
-0.00690986 0.00103884 1e-05
-0.00676834 0.00103955 1e-05
-0.0066279 0.00104025 1e-05
-0.00655864 0.0010406 1e-05
-0.00648938 0.00104095 1e-05
-0.00642012 0.0010413 1e-05
-0.00635086 0.00104166 1e-05
-0.0062816 0.00104201 1e-05
-0.00607944 0.00104304 1e-05
-0.00587729 0.00104407 1e-05
-0.00567514 0.00104511 1e-05
-0.00547298 0.00104615 1e-05
-0.00527083 0.00104719 1e-05
-0.00507675 0.00104819 1e-05
-0.00488267 0.0010492 1e-05
-0.0046886 0.00105021 1e-05
-0.00449452 0.00105122 1e-05
-0.00430044 0.00105223 1e-05
-0.00411412 0.0010532 1e-05
-0.0039278 0.00105417 1e-05
-0.00374147 0.00105514 1e-05
-0.00355515 0.00105612 1e-05
-0.00336883 0.00105709 1e-05
-0.00318995 0.00105802 1e-05
-0.00301107 0.00105896 1e-05
-0.00283219 0.00105989 1e-05
-0.00265331 0.00106083 1e-05
-0.00247443 0.00106176 1e-05
-0.0023027 0.00106265 1e-05
-0.00213097 0.00106355 1e-05
-0.00195924 0.00106444 1e-05
-0.0017875 0.00106534 1e-05
-0.00161577 0.00106623 1e-05
-0.0014509 0.00106708 1e-05
-0.00128603 0.00106793 1e-05
-0.00112116 0.00106878 1e-05
-0.000956289 0.00106963 1e-05
-0.000791418 0.00107047 1e-05
-0.000633135 0.00107126 1e-05
-0.000474851 0.00107204 1e-05
-0.000316567 0.00107281 1e-05
-0.000158283 0.00107356 1e-05
0 0.0010743 1e-05
0.000105677 0.00107478 1e-05
0.000211355 0.00107525 1e-05
0.000317032 0.00107571 1e-05
0.00042271 0.00107615 1e-05
0.000528387 0.00107658 1e-05
0.000634886 0.001077 1e-05
0.000741385 0.00107741 1e-05
0.000847885 0.00107782 1e-05
0.000954384 0.00107821 1e-05
0.00106088 0.00107859 1e-05
0.00116821 0.00107895 1e-05
0.00127554 0.00107931 1e-05
0.00138286 0.00107966 1e-05
0.00149019 0.00108 1e-05
0.00159752 0.00108033 1e-05
0.00170568 0.00108063 1e-05
0.00181384 0.00108094 1e-05
0.001922 0.00108125 1e-05
0.00203016 0.00108154 1e-05
0.00213833 0.00108182 1e-05
0.00224733 0.00108208 1e-05
0.00235633 0.00108235 1e-05
0.00246533 0.0010826 1e-05
0.00257434 0.00108285 1e-05
0.00268334 0.0010831 1e-05
0.00279319 0.00108332 1e-05
0.00290304 0.00108355 1e-05
0.00301289 0.00108377 1e-05
0.00312274 0.00108399 1e-05
0.00323259 0.0010842 1e-05
0.00334329 0.0010844 1e-05
0.003454 0.0010846 1e-05
0.0035647 0.00108479 1e-05
0.0036754 0.00108498 1e-05
0.00378611 0.00108516 1e-05
0.00389767 0.00108534 1e-05
0.00400924 0.00108551 1e-05
0.0041208 0.00108568 1e-05
0.00423237 0.00108584 1e-05
0.00434393 0.001086 1e-05
0.00445636 0.00108615 1e-05
0.00456879 0.0010863 1e-05
0.00468123 0.00108645 1e-05
0.00479366 0.00108659 1e-05
0.00490609 0.00108672 1e-05
0.0050194 0.00108685 1e-05
0.0051327 0.00108698 1e-05
0.00524601 0.0010871 1e-05
0.00535932 0.00108722 1e-05
0.00547262 0.00108733 1e-05
0.00556218 0.00108742 1e-05
0.00565174 0.0010875 1e-05
0.00574129 0.00108758 1e-05
0.00583085 0.00108765 1e-05
0.00591687 0.00108772 1e-05
0.0059422 0.00108774 1e-05
0.00596754 0.00108776 1e-05
0.00599288 0.00108778 1e-05
0.00601822 0.0010878 1e-05
0.00604356 0.00108782 1e-05
0.00615863 0.00108791 1e-05
0.00627371 0.00108799 1e-05
0.00638878 0.00108807 1e-05
0.00650386 0.00108814 1e-05
0.00661893 0.0010882 1e-05
0.0067349 0.00108826 1e-05
0.00685087 0.00108832 1e-05
0.00696684 0.00108837 1e-05
0.00708281 0.00108842 1e-05
0.00719878 0.00108846 1e-05
0.00731565 0.00108849 1e-05
0.00743252 0.00108852 1e-05
0.00754939 0.00108855 1e-05
0.00766626 0.00108857 1e-05
0.00778313 0.00108859 1e-05
0.00790091 0.00108859 1e-05
0.00801869 0.0010886 1e-05
0.00813647 0.0010886 1e-05
0.00825425 0.00108859 1e-05
0.00837203 0.00108858 1e-05
0.00849073 0.00108855 1e-05
0.00860942 0.00108853 1e-05
0.00872812 0.0010885 1e-05
0.00884682 0.00108846 1e-05
0.00896551 0.00108842 1e-05
0.00908513 0.00108836 1e-05
0.00920475 0.00108831 1e-05
0.00932437 0.00108824 1e-05
0.00944398 0.00108818 1e-05
0.0095636 0.00108811 1e-05
0.00968415 0.00108801 1e-05
0.0098047 0.00108792 1e-05
0.00992525 0.00108783 1e-05
0.0100458 0.00108773 1e-05
0.0101663 0.00108762 1e-05
0.0102878 0.00108749 1e-05
0.0104093 0.00108737 1e-05
0.0105308 0.00108724 1e-05
0.0106523 0.00108711 1e-05
0.0107738 0.00108697 1e-05
0.0108962 0.0010868 1e-05
0.0110186 0.00108664 1e-05
0.0111411 0.00108647 1e-05
0.0112635 0.0010863 1e-05
0.0113859 0.00108612 1e-05
0.0115093 0.00108591 1e-05
0.0116327 0.00108572 1e-05
0.0117561 0.00108551 1e-05
0.0118795 0.0010853 1e-05
0.0120028 0.00108508 1e-05
0.0121272 0.00108483 1e-05
0.0122515 0.00108459 1e-05
0.0123759 0.00108435 1e-05
0.0125002 0.0010841 1e-05
0.0126245 0.00108384 1e-05
0.0127498 0.00108354 1e-05
0.0128752 0.00108326 1e-05
0.0130005 0.00108297 1e-05
0.0131258 0.00108268 1e-05
0.0132511 0.00108237 1e-05
0.0133774 0.00108204 1e-05
0.0135036 0.00108171 1e-05
0.0136299 0.00108138 1e-05
0.0137562 0.00108103 1e-05
0.0138825 0.00108069 1e-05
0.0140098 0.0010803 1e-05
0.014137 0.00107993 1e-05
0.0142643 0.00107955 1e-05
0.0143915 0.00107916 1e-05
0.0145188 0.00107876 1e-05
0.0146471 0.00107833 1e-05
0.0147753 0.00107791 1e-05
0.0149036 0.00107748 1e-05
0.0150318 0.00107704 1e-05
0.0151601 0.00107659 1e-05
0.0152893 0.00107612 1e-05
0.0154186 0.00107564 1e-05
0.0155478 0.00107516 1e-05
0.0156771 0.00107467 1e-05
0.0158063 0.00107417 1e-05
0.0159366 0.00107364 1e-05
0.0160668 0.00107312 1e-05
0.0161971 0.00107259 1e-05
0.0163274 0.00107204 1e-05
0.0164576 0.00107149 1e-05
0.0165889 0.00107091 1e-05
0.0167201 0.00107033 1e-05
0.0168514 0.00106974 1e-05
0.0169827 0.00106914 1e-05
0.0171139 0.00106854 1e-05
0.0172462 0.00106791 1e-05
0.0173785 0.00106727 1e-05
0.0175108 0.00106663 1e-05
0.0176431 0.00106597 1e-05
0.0177754 0.00106531 1e-05
0.0179087 0.00106463 1e-05
0.018042 0.00106394 1e-05
0.0181753 0.00106323 1e-05
0.0183087 0.00106252 1e-05
0.018442 0.0010618 1e-05
0.0185763 0.00106107 1e-05
0.0187107 0.00106032 1e-05
0.018845 0.00105956 1e-05
0.0189794 0.00105879 1e-05
0.0191137 0.00105801 1e-05
0.0192491 0.00105722 1e-05
0.0193845 0.00105642 1e-05
0.0195199 0.0010556 1e-05
0.0196553 0.00105477 1e-05
0.0197907 0.00105393 1e-05
0.0199272 0.00105309 1e-05
0.0200636 0.00105223 1e-05
0.0202001 0.00105135 1e-05
0.0203365 0.00105046 1e-05
0.020473 0.00104956 1e-05
0.0206105 0.00104867 1e-05
0.020748 0.00104774 1e-05
0.0208855 0.0010468 1e-05
0.021023 0.00104585 1e-05
0.0211606 0.0010449 1e-05
0.0212991 0.00104395 1e-05
0.0214377 0.00104297 1e-05
0.0215763 0.00104196 1e-05
0.0217149 0.00104095 1e-05
0.0218535 0.00103994 1e-05
0.0219931 0.00103893 1e-05
0.0221328 0.00103789 1e-05
0.0222724 0.00103683 1e-05
0.0224121 0.00103575 1e-05
0.0225517 0.00103468 1e-05
0.0226925 0.00103362 1e-05
0.0228332 0.00103252 1e-05
0.022974 0.0010314 1e-05
0.0231147 0.00103026 1e-05
0.0232555 0.00102913 1e-05
0.0233973 0.00102801 1e-05
0.0235391 0.00102686 1e-05
0.023681 0.00102567 1e-05
0.0238228 0.00102447 1e-05
0.0239647 0.00102329 1e-05
0.0241076 0.00102211 1e-05
0.0242505 0.00102089 1e-05
0.0243935 0.00101965 1e-05
0.0245364 0.00101839 1e-05
0.0246794 0.00101715 1e-05
0.0248234 0.00101591 1e-05
0.0249675 0.00101463 1e-05
0.0251115 0.00101333 1e-05
0.0252556 0.00101201 1e-05
0.0253996 0.00101071 1e-05
0.0255448 0.00100941 1e-05
0.02569 0.00100808 1e-05
0.0258351 0.00100671 1e-05
0.0259803 0.00100533 1e-05
0.0261255 0.00100397 1e-05
0.0262718 0.00100261 1e-05
0.0264181 0.00100122 1e-05
0.0265644 0.000999792 1e-05
0.0267107 0.000998354 1e-05
0.026857 0.000996933 1e-05
0.0270044 0.000995515 1e-05
0.0271519 0.000994062 1e-05
0.0272993 0.000992573 1e-05
0.0274468 0.000991075 1e-05
0.0275942 0.000989592 1e-05
0.0277428 0.000988114 1e-05
0.0278914 0.0009866 1e-05
0.0280399 0.000985051 1e-05
0.0281885 0.000983494 1e-05
0.0283371 0.00098195 1e-05
0.0284869 0.00098041 1e-05
0.0286366 0.000978834 1e-05
0.0287863 0.000977227 1e-05
0.0289361 0.000975612 1e-05
0.0290858 0.000974006 1e-05
0.0292367 0.000972403 1e-05
0.0293876 0.000970764 1e-05
0.0295385 0.000969098 1e-05
0.0296894 0.000967423 1e-05
0.0298403 0.000965754 1e-05
0.0299924 0.000964087 1e-05
0.0301445 0.000962383 1e-05
0.0302966 0.000960657 1e-05
0.0304486 0.000958922 1e-05
0.0306007 0.000957188 1e-05
0.030754 0.000955455 1e-05
0.0309072 0.000953687 1e-05
0.0310605 0.000951898 1e-05
0.0312138 0.000950101 1e-05
0.031367 0.000948302 1e-05
0.0315215 0.000946502 1e-05
0.0316759 0.000944666 1e-05
0.0318304 0.000942814 1e-05
0.0319848 0.000940954 1e-05
0.0321393 0.000939086 1e-05
0.0322949 0.000937217 1e-05
0.0324506 0.000935312 1e-05
0.0326062 0.000933395 1e-05
0.0327619 0.000931469 1e-05
0.0329175 0.000929532 1e-05
0.0330744 0.000927592 1e-05
0.0332313 0.000925618 1e-05
0.0333881 0.000923633 1e-05
[...]
POINT_DATA 11920
 FIELD attributes 2
p 1 11920 float
-5.06444 -5.05679 -5.04877 -5.04071 -5.03262 -5.03312 -5.00605 -5.02214 -5.03822 -5.05428 -5.11543 -5.12156 -5.16037 -5.19919 -5.23802 -5.2996 -5.29884 -5.32584 -5.35286 -5.3799 -5.42641 -5.43017 -5.4535 -5.47685 -5.50022 -5.53832 -5.54748 -5.56917 -5.59087 -5.61258 -5.64374 -5.65499 -5.67416 -5.69333 -5.71251 -5.73746 -5.74964 -5.76666 -5.7837 -5.80074 -5.82109 -5.83396 -5.84958 -5.8652 -5.88083 -5.89808 -5.9114 -5.92606 -5.94071 -5.95536 -5.97053 -5.97948 -5.98885 -5.99821 -6.00758 -6.01687 -6.02145 -6.02603 -6.03061 -6.0352 -6.03962 -6.05314 -6.06653 -6.07993 -6.09333 -6.10623 -6.11964 -6.13267 -6.14571 -6.15874 -6.17106 -6.18443 -6.19726 -6.21009 -6.22292 -6.23493 -6.24841 -6.26127 -6.27413 -6.28699 -6.299 -6.31306 -6.32656 -6.34005 -6.35354 -6.36625 -6.38238 -6.39836 -6.41434 -6.43033 -6.44565 -6.46367 -6.4811 -6.49853 -6.51596 -6.53179 -6.5458 -6.55749 -6.56918 -6.58087 -6.59027 -6.60016 -6.60688 -6.6136 -6.62033 -6.62463 -6.63349 -6.6391 -6.6447 -6.6503 -6.65315 -6.66193 -6.66715 -6.67238 -6.6776 -6.67962 -6.68698 -6.69089 -6.6948 -6.69871 -6.69957 -6.7053 -6.70816 -6.71103 -6.71389 -6.71428 -6.71872 -6.72103 -6.72334 -6.72565 -6.72617 -6.72953 -6.73144 -6.73334 -6.73525 -6.73601 -6.73845 -6.74001 -6.74156 -6.74311 -6.74407 -6.74581 -6.7471 -6.74839 -6.74969 -6.75077 -6.7518 -6.75268 -6.75356 -6.75444 -6.75529 -6.75554 -6.75579 -6.75604 -6.75629 -6.75655 -6.75757 -6.7586 -6.75962 -6.76065 -6.76171 -6.7627 -6.7637 -6.76469 -6.76568 -6.76669 -6.76772 -6.76873 -6.76975 -6.77076 -6.77181 -6.77286 -6.77393 -6.775 -6.77608 -6.77726 -6.77826 -6.7794 -6.78054 -6.78169 -6.78312 -6.78397 -6.78519 -6.78642 -6.78764 -6.78944 -6.79004 -6.79135 -6.79266 -6.79397 -6.79624 -6.79653 -6.79793 -6.79933 -6.80073 -6.80356 -6.80345 -6.80495 -6.80644 -6.80794 -6.8114 -6.81086 -6.81245 -6.81404 -6.81563 -6.81975 -6.81877 -6.82046 -6.82214 -6.82382 -6.82862 -6.82721 -6.82899 -6.83076 -6.83254 -6.83799 -6.83618 -6.83805 -6.83992 -6.84179 -6.84785 -6.84571 -6.84767 -6.84963 -6.85159 -6.85818 -6.85579 -6.85784 -6.85989 -6.86195 -6.86897 -6.86659 -6.86857 -6.87071 -6.87327 -6.88022 -6.87816 -6.87986 -6.88209 -6.88511 -6.89189 -6.89023 -6.89169 -6.894 -6.89744 -6.90399 -6.90276 -6.90404 -6.90644 -6.91022 -6.91649 -6.91572 -6.91688 -6.91937 -6.92342 -6.92937 -6.9291 -6.93022 -6.9328 -6.93705 -6.94267 -6.94288 -6.94404 -6.94671 -6.95108 -6.95636 -6.95706 -6.95832 -6.96108 -6.96549 -6.97044 -6.97158 -6.97301 -6.97584 -6.98023 -6.98486 -6.98642 -6.98806 -6.99097 -6.99527 -6.99961 -7.00156 -7.00351 -7.00651 -7.0106 -7.01468 -7.01697 -7.01926 -7.02233 -7.02619 -7.03005 -7.03264 -7.03524 -7.03837 -7.04205 -7.04572 -7.04857 -7.05143 -7.05462 -7.05815 -7.06168 -7.06475 -7.06782 -7.07107 -7.07449 -7.07791 -7.08116 -7.08442 -7.08771 -7.09106 -7.0944 -7.0978 -7.1012 -7.10454 -7.10784 -7.11114 -7.11465 -7.11817 -7.12155 -7.12483 -7.12811 -7.13171 -7.13529 -7.13872 -7.14201 -7.1453 -7.14895 -7.15256 -7.15602 -7.15936 -7.16266 -7.16635 -7.16997 -7.17346 -7.17686 -7.18018 -7.18389 -7.18751 -7.19102 -7.19447 -7.19784 -7.20155 -7.20516 -7.2087 -7.21221 -7.21561 -7.21932 -7.22291 -7.22648 -7.23003 -7.23348 -7.23716 -7.24075 -7.24432 -7.2479 -7.25138 -7.25503 -7.25861 -7.26218 -7.26576 -7.26928 -7.27288 -7.27645 -7.28001 -7.28358 -7.28711 -7.29067 -7.29422 -7.29776 -7.30131 -7.30484 -7.30835 -7.31186 -7.31537 -7.31888 -7.32239 -7.32585 -7.32932 -7.33278 -7.33625 -7.33972 -7.34265 -7.34559 -7.34854 -7.35148 -7.35431 -7.3548 -7.35529 -7.35577 -7.35626 -7.35675 -7.3601 -7.36344 -7.36679 -7.37014 -7.37349 -7.37675 -7.38001 -7.38327 -7.38653 -7.38978 -7.39296 -7.39611 -7.39927 -7.40242 -7.40557 -7.40865 -7.41169 -7.41472 -7.41776 -7.42077 -7.42375 -7.42665 -7.42956 -7.43246 -7.43531 -7.43818 -7.44093 -7.44368 -7.44642 -7.4491 -7.45181 -7.45442 -7.45699 -7.45954 -7.46202 -7.46456 -7.46701 -7.46939 -7.4717 -7.47398 -7.47631 -7.4786 -7.48076 -7.48282 -7.48485 -7.48696 -7.48907 -7.49099 -7.49276 -7.49453 -7.4964 -7.49828 -7.49993 -7.50142 -7.50292 -7.50452 -7.50613 -7.50752 -7.5087 -7.50989 -7.5112 -7.51251 -7.51361 -7.51446 -7.51531 -7.5163 -7.51729 -7.51807 -7.51856 -7.51904 -7.51968 -7.52028 -7.52069 -7.52084 -7.52092 -7.52117 -7.52133 -7.52132 -7.52114 -7.5208 -7.52064 -7.5203 -7.51986 -7.51933 -7.51853 -7.51792 -7.51704 -7.51613 -7.51522 -7.51395 -7.5128 -7.51138 -7.50996 -7.50855 -7.50687 -7.5051 -7.50314 -7.50117 -7.49921 -7.4971 -7.49466 -7.49211 -7.48956 -7.48701 -7.48445 -7.4842 -7.48393 -7.48367 -7.4834 -7.48314 -7.48028 -7.47743 -7.47458 -7.47173 -7.46886 -7.46514 -7.46136 -7.45758 -7.45381 -7.44997 -7.44563 -7.44114 -7.43666 -7.43218 -7.42756 -7.42256 -7.41733 -7.4121 -7.40682 -7.40141 -7.39563 -7.3897 -7.38367 -7.37751 -7.37128 -7.36467 -7.35802 -7.35114 -7.34405 -7.33694 -7.32946 -7.32198 -7.31422 -7.30619 -7.29817 -7.28976 -7.28137 -7.27269 -7.26371 -7.25472 -7.24536 -7.23599 -7.22632 -7.21637 -7.20639 -7.19602 -7.18551 -7.17481 -7.16398 -7.15295 -7.14153 -7.12982 -7.11806 -7.10629 -7.0942 -7.08162 -7.06874 -7.05586 -7.04299 -7.02997 -7.01811 -7.0061 -6.9941 -6.9821 -6.97085 -6.96869 -6.96654 -6.96438 -6.96222 -6.96005 -6.9449 -6.92973 -6.91458 -6.89943 -6.88416 -6.86793 -6.85158 -6.83524 -6.8189 -6.80231 -6.78498 -6.76744 -6.74989 -6.73225 -6.71439 -6.69585 -6.6772 -6.65843 -6.63942 -6.62032 -6.60053 -6.58075 -6.56071 -6.54036 -6.52002 -6.49898 -6.47796 -6.45663 -6.43503 -6.41343 -6.39115 -6.36882 -6.34619 -6.32339 -6.30054 -6.277 -6.25324 -6.22934 -6.20543 -6.18132 -6.15649 -6.13133 -6.10618 -6.08104 -6.0558 -6.03581 -6.01568 -5.99556 -5.97544 -5.95634 -5.94988 -5.94343 -5.93698 -5.93053 -5.92401 -5.89651 -5.86897 -5.84143 -5.81391 -5.78603 -5.75751 -5.72876 -5.70002 -5.67119 -5.6419 -5.61223 -5.58243 -5.5525 -5.52219 -5.49172 -5.46087 -5.43003 -5.39885 -5.36722 -5.3356 -5.30359 -5.2716 -5.23915 -5.20641 -5.17366 -5.14053 -5.1072 -5.07358 -5.03989 -5.00606 -4.97184 -4.93713 -4.90243 -4.86774 -4.83295 -4.81009 -4.78705 -4.76401 -4.74097 -4.71881 -4.70596 -4.69312 -4.68028 -4.66744 -4.65448 -4.61786 -4.5812 -4.54454 -4.5079 -4.4708 -4.43333 -4.39573 -4.35812 -4.32029 -4.28216 -4.24375 -4.20535 -4.16678 -4.12777 -4.08875 -4.04944 -4.01015 -3.97049 -3.93063 -3.89076 -3.8506 -3.81027 -3.76967 -3.72906 -3.68838 -3.64739 -3.60599 -3.5646 -3.52323 -3.48182 -3.46656 -3.45119 -3.43582 -3.42046 -3.40538 -3.37857 -3.35177 -3.32498 -3.29819 -3.27118 -3.2284 -3.18559 -3.14279 -3.09995 -3.05667 -3.01322 -2.96976 -2.92629 -2.88246 -2.83853 -2.79443 -2.75033 -2.70601 -2.66147 -2.61693 -2.57221 -2.52739 -2.48226 -2.43714 -2.39202 -2.34671 -2.30102 -2.25532 -2.20963 -2.16394 -2.14759 -2.13113 -2.11467 -2.09821 -2.08201 -2.05219 -2.02237 -1.99255 -1.96274 -1.9327 -1.88594 -1.83921 -1.79248 -1.74565 -1.69846 -1.6512 -1.60395 -1.55673 -1.50909 -1.46142 -1.41368 -1.36594 -1.3179 -1.26979 -1.22166 -1.17346 -1.12504 -1.07643 -1.02783 -0.979256 -0.938254 -0.896978 -0.855705 -0.814437 -0.774591 -0.766532 -0.758472 -0.750413 -0.742355 -0.734235 -0.684752 -0.63528 -0.585814 -0.536353 -0.486449 -0.436525 -0.386627 -0.336746 -0.286538 -0.236188 -0.185852 -0.135523 -0.0849692 -0.0342373 0.016518 0.0672579 0.11816 0.169331 0.220491 0.271646 0.318574 0.365837 0.413096 0.460351 0.50584 0.510508 0.515175 0.519843 0.52451 0.529214 0.581187 0.633153 0.685114 0.737071 0.789483 0.841862 0.894229 0.946586 0.9993 1.05214 1.10492 1.15769 1.21075 1.26395 1.31719 1.37037 1.42377 1.47739 1.53099 1.58463 1.61768 1.65098 1.68427 1.71756 1.74995 1.77085 1.79175 1.81264 1.83354 1.85459 1.90899 1.96338 2.01778 2.07227 2.12713 2.18193 2.23671 2.29158 2.34679 2.40204 2.45723 2.51247 2.56806 2.62366 2.6793 2.73306 2.78718 2.84129 2.89541 2.94706 2.94943 2.9518 2.95416 2.95653 2.95891 3.01528 3.07163 3.12799 3.18434 3.24104 3.29781 3.35458 3.41132 3.46833 3.52541 3.58257 3.63972 3.69713 3.75452 3.81197 3.86692 3.92209 3.97726 4.03243 4.08492 4.08806 4.09121 4.09435 4.0975 4.10066 4.15873 4.21681 4.27488 4.33295 4.3914 4.44977 4.50816 4.56657 4.62526 4.68403 4.74273 4.80143 4.86038 4.91935 4.97842 5.02873 5.07922 5.12972 5.18022 5.22847 5.23766 5.24686 5.25606 5.26526 5.27451 5.334 5.39351 5.45302 5.51259 5.57243 5.63212 5.69181 5.75162 5.81157 5.87162 5.93153 5.99152 6.05159 6.11165 6.17186 6.18734 6.20286 6.21837 6.23389 6.24919 6.29399 6.33878 6.38357 6.42837 6.47328 6.53365 6.59402 6.6544 6.71481 6.77534 6.83579 6.89622 6.95664 7.01706 7.07761 7.09531 7.11301 7.1307 7.14838 7.16581 7.20867 7.25153 7.2944 7.33723 7.38008 7.44056 7.50104 7.56145 7.62175 7.68216 7.74253 7.80277 7.86292 7.92306 7.98331 7.98595 7.98858 7.9912 7.99383 7.99644 8.05394 8.11143 8.16891 8.22629 8.2836 8.34349 8.40337 8.46302 8.52252 8.5821 8.61741 8.65258 8.68766 8.72274 8.75725 8.78155 8.80586 8.83016 8.8544 8.87857 8.93761 8.9966 9.05553 9.11408 9.17267 9.23116 9.28942 9.34744 9.40547 9.46352 9.46421 9.4649 9.46559 9.46628 9.46697 9.52401 9.58105 9.63809 9.69492 9.7515 9.80859 9.86568 9.9223 9.97886 10.0353 10.0565 10.0777 10.0987 10.1197 10.1409 10.1759 10.2108 10.2457 10.2805 10.3152 10.3705 10.4259 10.481 10.5357 10.5904 10.6321 10.6736 10.7149 10.7562 10.7992 10.8114 10.8237 10.8359 10.8482 10.8603 10.9136 10.9668 11.02 11.0728 11.1254 11.1775 11.2295 11.281 11.3326 11.3839 11.399 11.4139 11.4288 11.4437 11.459 11.4946 11.5303 11.5659 11.6015 11.6367 11.6863 11.7358 11.7851 11.834 11.8827 11.9308 11.9785 12.0261 12.0736 12.121 12.1253 12.1296 12.1338 12.1381 12.1424 12.1846 12.2268 12.2691 12.3112 12.3529 12.3981 12.4432 12.488 12.5324 12.5766 12.6201 12.6634 12.7066 12.7498 12.7926 12.8106 12.8282 12.8458 12.8633 12.8825 12.906 12.9295 12.9529 12.9764 12.9993 13.0393 13.0798 13.1203 13.1618 13.2039 13.2451 13.2863 13.3206 13.3481 13.3755 13.4018 13.4315 13.4736 13.5205 13.5725 13.6114 13.6374 13.6594 13.6813 13.7073 13.7156 13.7238 13.7321 13.7397 13.7434 13.7611 13.7798 13.7983 13.8185 13.8412 13.8625 13.8836 13.9024 13.919 13.9354 13.9503 13.9637 13.9761 13.9883 13.9993 14.0034 14.0063 14.0092 14.0121 14.0153 14.0193 14.0233 14.0273 14.0312 14.0341 14.0365 14.0377 14.0387 14.0387 14.0372 14.033 14.0288 14.0221 14.0133 14.0044 13.9926 13.9805 13.9656 13.9493 13.9322 13.912 13.8891 13.8657 13.8421 13.817 13.7976 13.7766 13.7555 13.7344 13.7089 13.6984 13.6879 13.6774 13.6669 13.6557 13.6149 13.5732 13.5315 13.4896 13.4447 13.3951 13.3427 13.2899 13.2353 13.1784 13.1173 13.0554 12.9906 12.9216 12.8525 12.7787 12.7049 12.6267 12.5444 12.462 12.3747 12.2874 12.1951 12.0985 12.0016 11.8995 11.7952 11.6877 11.5781 11.4659 11.3481 11.2253 11.101 10.9766 10.8466 10.7097 10.568 10.4262 10.2845 10.1397 9.98167 9.81816 9.65464 9.49111 9.32504 9.17426 9.0231 8.87192 8.72073 8.51756 8.4973 8.47705 8.45679 8.43653 8.41619 8.20201 7.98698 7.77185 7.55662 7.33445 7.10182 6.87614 6.65047 6.42481 6.21098 5.95498 5.64371 5.33213 5.02024 4.63194 4.24199 4.0054 3.76746 3.52822 3.47503 3.44238 2.83558 2.21536 1.35501 0