# vtk DataFile Version 2.0
track0
ASCII
DATASET POLYDATA
POINTS 11920 float
-0.0205 0.001 1e-05
-0.0202034 0.0010001 1e-05
-0.0199069 0.00100035 1e-05
-0.0196103 0.00100072 1e-05
-0.0193137 0.0010012 1e-05
-0.0190172 0.00100179 1e-05
-0.0187132 0.00100302 1e-05
-0.0184093 0.00100345 1e-05
-0.0181054 0.00100385 1e-05
-0.0178015 0.00100422 1e-05
-0.0174976 0.00100457 1e-05
-0.0172058 0.00100548 1e-05
-0.016914 0.00100571 1e-05
-0.0166222 0.00100596 1e-05
-0.0163305 0.00100621 1e-05
-0.0160387 0.00100649 1e-05
-0.0157586 0.00100728 1e-05
-0.0154784 0.00100761 1e-05
-0.0151983 0.00100798 1e-05
-0.0149182 0.00100839 1e-05
-0.0146381 0.00100886 1e-05
-0.0143692 0.00100974 1e-05
-0.0141002 0.00101029 1e-05
-0.0138313 0.00101088 1e-05
-0.0135624 0.00101152 1e-05
-0.0132934 0.0010122 1e-05
-0.0130353 0.00101317 1e-05
-0.0127771 0.00101391 1e-05
-0.0125189 0.00101469 1e-05
-0.0122607 0.00101551 1e-05
-0.0120025 0.00101635 1e-05
-0.0117547 0.00101738 1e-05
-0.0115068 0.00101826 1e-05
-0.0112589 0.00101917 1e-05
-0.0110111 0.00102011 1e-05
-0.0107632 0.00102107 1e-05
-0.0105252 0.00102213 1e-05
-0.0102873 0.0010231 1e-05
-0.0100493 0.0010241 1e-05
-0.00981133 0.00102511 1e-05
-0.00957337 0.00102614 1e-05
-0.00934491 0.00102721 1e-05
-0.00911645 0.00102824 1e-05
-0.00888799 0.00102928 1e-05
-0.00865954 0.00103033 1e-05
-0.00843108 0.0010314 1e-05
-0.00821175 0.00103247 1e-05
-0.00799242 0.00103352 1e-05
-0.00777309 0.00103457 1e-05
-0.00755376 0.00103564 1e-05
-0.00733443 0.00103672 1e-05
-0.00719291 0.00103743 1e-05
-0.00705138 0.00103813 1e-05
-0.00690986 0.00103884 1e-05
-0.00676834 0.00103955 1e-05
-0.0066279 0.00104025 1e-05
-0.00655864 0.0010406 1e-05
-0.00648938 0.00104095 1e-05
-0.00642012 0.0010413 1e-05
-0.00635086 0.00104166 1e-05
-0.0062816 0.00104201 1e-05
-0.00607944 0.00104304 1e-05
-0.00587729 0.00104407 1e-05
-0.00567514 0.00104511 1e-05
-0.00547298 0.00104615 1e-05
-0.00527083 0.00104719 1e-05
-0.00507675 0.00104819 1e-05
-0.00488267 0.0010492 1e-05
-0.0046886 0.00105021 1e-05
-0.00449452 0.00105122 1e-05
-0.00430044 0.00105223 1e-05
-0.00411412 0.0010532 1e-05
-0.0039278 0.00105417 1e-05
-0.00374147 0.00105514 1e-05
-0.00355515 0.00105612 1e-05
-0.00336883 0.00105709 1e-05
-0.00318995 0.00105802 1e-05
-0.00301107 0.00105896 1e-05
-0.00283219 0.00105989 1e-05
-0.00265331 0.00106083 1e-05
-0.00247443 0.00106176 1e-05
-0.0023027 0.00106265 1e-05
-0.00213097 0.00106355 1e-05
-0.00195924 0.00106444 1e-05
-0.0017875 0.00106534 1e-05
-0.00161577 0.00106623 1e-05
-0.0014509 0.00106708 1e-05
-0.00128603 0.00106793 1e-05
-0.00112116 0.00106878 1e-05
-0.000956289 0.00106963 1e-05
-0.000791418 0.00107047 1e-05
-0.000633135 0.00107126 1e-05
-0.000474851 0.00107204 1e-05
-0.000316567 0.00107281 1e-05
-0.000158283 0.00107356 1e-05
0 0.0010743 1e-05
0.000105677 0.00107478 1e-05
0.000211355 0.00107525 1e-05
0.000317032 0.00107571 1e-05
0.00042271 0.00107615 1e-05
0.000528387 0.00107658 1e-05
0.000634886 0.001077 1e-05
0.000741385 0.00107741 1e-05
0.000847885 0.00107782 1e-05
0.000954384 0.00107821 1e-05
0.00106088 0.00107859 1e-05
0.00116821 0.00107895 1e-05
0.00127554 0.00107931 1e-05
0.00138286 0.00107966 1e-05
0.00149019 0.00108 1e-05
0.00159752 0.00108033 1e-05
0.00170568 0.00108063 1e-05
0.00181384 0.00108094 1e-05
0.001922 0.00108125 1e-05
0.00203016 0.00108154 1e-05
0.00213833 0.00108182 1e-05
0.00224733 0.00108208 1e-05
0.00235633 0.00108235 1e-05
0.00246533 0.0010826 1e-05
0.00257434 0.00108285 1e-05
0.00268334 0.0010831 1e-05
0.00279319 0.00108332 1e-05
0.00290304 0.00108355 1e-05
0.00301289 0.00108377 1e-05
0.00312274 0.00108399 1e-05
0.00323259 0.0010842 1e-05
0.00334329 0.0010844 1e-05
0.003454 0.0010846 1e-05
0.0035647 0.00108479 1e-05
0.0036754 0.00108498 1e-05
0.00378611 0.00108516 1e-05
0.00389767 0.00108534 1e-05
0.00400924 0.00108551 1e-05
0.0041208 0.00108568 1e-05
0.00423237 0.00108584 1e-05
0.00434393 0.001086 1e-05
0.00445636 0.00108615 1e-05
0.00456879 0.0010863 1e-05
0.00468123 0.00108645 1e-05
0.00479366 0.00108659 1e-05
0.00490609 0.00108672 1e-05
0.0050194 0.00108685 1e-05
0.0051327 0.00108698 1e-05
0.00524601 0.0010871 1e-05
0.00535932 0.00108722 1e-05
0.00547262 0.00108733 1e-05
0.00556218 0.00108742 1e-05
0.00565174 0.0010875 1e-05
0.00574129 0.00108758 1e-05
0.00583085 0.00108765 1e-05
0.00591687 0.00108772 1e-05
0.0059422 0.00108774 1e-05
0.00596754 0.00108776 1e-05
0.00599288 0.00108778 1e-05
0.00601822 0.0010878 1e-05
0.00604356 0.00108782 1e-05
0.00615863 0.00108791 1e-05
0.00627371 0.00108799 1e-05
0.00638878 0.00108807 1e-05
0.00650386 0.00108814 1e-05
0.00661893 0.0010882 1e-05
0.0067349 0.00108826 1e-05
0.00685087 0.00108832 1e-05
0.00696684 0.00108837 1e-05
0.00708281 0.00108842 1e-05
0.00719878 0.00108846 1e-05
0.00731565 0.00108849 1e-05
0.00743252 0.00108852 1e-05
0.00754939 0.00108855 1e-05
0.00766626 0.00108857 1e-05
0.00778313 0.00108859 1e-05
0.00790091 0.00108859 1e-05
0.00801869 0.0010886 1e-05
0.00813647 0.0010886 1e-05
0.00825425 0.00108859 1e-05
0.00837203 0.00108858 1e-05
0.00849073 0.00108855 1e-05
0.00860942 0.00108853 1e-05
0.00872812 0.0010885 1e-05
0.00884682 0.00108846 1e-05
0.00896551 0.00108842 1e-05
0.00908513 0.00108836 1e-05
0.00920475 0.00108831 1e-05
0.00932437 0.00108824 1e-05
0.00944398 0.00108818 1e-05
0.0095636 0.00108811 1e-05
0.00968415 0.00108801 1e-05
0.0098047 0.00108792 1e-05
0.00992525 0.00108783 1e-05
0.0100458 0.00108773 1e-05
0.0101663 0.00108762 1e-05
0.0102878 0.00108749 1e-05
0.0104093 0.00108737 1e-05
0.0105308 0.00108724 1e-05
0.0106523 0.00108711 1e-05
0.0107738 0.00108697 1e-05
0.0108962 0.0010868 1e-05
0.0110186 0.00108664 1e-05
0.0111411 0.00108647 1e-05
0.0112635 0.0010863 1e-05
0.0113859 0.00108612 1e-05
0.0115093 0.00108591 1e-05
0.0116327 0.00108572 1e-05
0.0117561 0.00108551 1e-05
0.0118795 0.0010853 1e-05
0.0120028 0.00108508 1e-05
0.0121272 0.00108483 1e-05
0.0122515 0.00108459 1e-05
0.0123759 0.00108435 1e-05
0.0125002 0.0010841 1e-05
0.0126245 0.00108384 1e-05
0.0127498 0.00108354 1e-05
0.0128752 0.00108326 1e-05
0.0130005 0.00108297 1e-05
0.0131258 0.00108268 1e-05
0.0132511 0.00108237 1e-05
0.0133774 0.00108204 1e-05
0.0135036 0.00108171 1e-05
0.0136299 0.00108138 1e-05
0.0137562 0.00108103 1e-05
0.0138825 0.00108069 1e-05
0.0140098 0.0010803 1e-05
0.014137 0.00107993 1e-05
0.0142643 0.00107955 1e-05
0.0143915 0.00107916 1e-05
0.0145188 0.00107876 1e-05
0.0146471 0.00107833 1e-05
0.0147753 0.00107791 1e-05
0.0149036 0.00107748 1e-05
0.0150318 0.00107704 1e-05
0.0151601 0.00107659 1e-05
0.0152893 0.00107612 1e-05
0.0154186 0.00107564 1e-05
0.0155478 0.00107516 1e-05
0.0156771 0.00107467 1e-05
0.0158063 0.00107417 1e-05
0.0159366 0.00107364 1e-05
0.0160668 0.00107312 1e-05
0.0161971 0.00107259 1e-05
0.0163274 0.00107204 1e-05
0.0164576 0.00107149 1e-05
0.0165889 0.00107091 1e-05
0.0167201 0.00107033 1e-05
0.0168514 0.00106974 1e-05
0.0169827 0.00106914 1e-05
0.0171139 0.00106854 1e-05
0.0172462 0.00106791 1e-05
0.0173785 0.00106727 1e-05
0.0175108 0.00106663 1e-05
0.0176431 0.00106597 1e-05
0.0177754 0.00106531 1e-05
0.0179087 0.00106463 1e-05
0.018042 0.00106394 1e-05
0.0181753 0.00106323 1e-05
0.0183087 0.00106252 1e-05
0.018442 0.0010618 1e-05
0.0185763 0.00106107 1e-05
0.0187107 0.00106032 1e-05
0.018845 0.00105956 1e-05
0.0189794 0.00105879 1e-05
0.0191137 0.00105801 1e-05
0.0192491 0.00105722 1e-05
0.0193845 0.00105642 1e-05
0.0195199 0.0010556 1e-05
0.0196553 0.00105477 1e-05
0.0197907 0.00105393 1e-05
0.0199272 0.00105309 1e-05
0.0200636 0.00105223 1e-05
0.0202001 0.00105135 1e-05
0.0203365 0.00105046 1e-05
0.020473 0.00104956 1e-05
0.0206105 0.00104867 1e-05
0.020748 0.00104774 1e-05
0.0208855 0.0010468 1e-05
0.021023 0.00104585 1e-05
0.0211606 0.0010449 1e-05
0.0212991 0.00104395 1e-05
0.0214377 0.00104297 1e-05
0.0215763 0.00104196 1e-05
0.0217149 0.00104095 1e-05
0.0218535 0.00103994 1e-05
0.0219931 0.00103893 1e-05
0.0221328 0.00103789 1e-05
0.0222724 0.00103683 1e-05
0.0224121 0.00103575 1e-05
0.0225517 0.00103468 1e-05
0.0226925 0.00103362 1e-05
0.0228332 0.00103252 1e-05
0.022974 0.0010314 1e-05
0.0231147 0.00103026 1e-05
0.0232555 0.00102913 1e-05
0.0233973 0.00102801 1e-05
0.0235391 0.00102686 1e-05
0.023681 0.00102567 1e-05
0.0238228 0.00102447 1e-05
0.0239647 0.00102329 1e-05
0.0241076 0.00102211 1e-05
0.0242505 0.00102089 1e-05
0.0243935 0.00101965 1e-05
0.0245364 0.00101839 1e-05
0.0246794 0.00101715 1e-05
0.0248234 0.00101591 1e-05
0.0249675 0.00101463 1e-05
0.0251115 0.00101333 1e-05
0.0252556 0.00101201 1e-05
0.0253996 0.00101071 1e-05
0.0255448 0.00100941 1e-05
0.02569 0.00100808 1e-05
0.0258351 0.00100671 1e-05
0.0259803 0.00100533 1e-05
0.0261255 0.00100397 1e-05
0.0262718 0.00100261 1e-05
0.0264181 0.00100122 1e-05
0.0265644 0.000999792 1e-05
0.0267107 0.000998354 1e-05
0.026857 0.000996933 1e-05
0.0270044 0.000995515 1e-05
0.0271519 0.000994062 1e-05
0.0272993 0.000992573 1e-05
0.0274468 0.000991075 1e-05
0.0275942 0.000989592 1e-05
0.0277428 0.000988114 1e-05
0.0278914 0.0009866 1e-05
0.0280399 0.000985051 1e-05
0.0281885 0.000983494 1e-05
0.0283371 0.00098195 1e-05
0.0284869 0.00098041 1e-05
0.0286366 0.000978834 1e-05
0.0287863 0.000977227 1e-05
0.0289361 0.000975612 1e-05
0.0290858 0.000974006 1e-05
0.0292367 0.000972403 1e-05
0.0293876 0.000970764 1e-05
0.0295385 0.000969098 1e-05
0.0296894 0.000967423 1e-05
0.0298403 0.000965754 1e-05
0.0299924 0.000964087 1e-05
0.0301445 0.000962383 1e-05
0.0302966 0.000960657 1e-05
0.0304486 0.000958922 1e-05
0.0306007 0.000957188 1e-05
0.030754 0.000955455 1e-05
0.0309072 0.000953687 1e-05
0.0310605 0.000951898 1e-05
0.0312138 0.000950101 1e-05
0.031367 0.000948302 1e-05
0.0315215 0.000946502 1e-05
0.0316759 0.000944666 1e-05
0.0318304 0.000942814 1e-05
0.0319848 0.000940954 1e-05
0.0321393 0.000939086 1e-05
0.0322949 0.000937217 1e-05
0.0324506 0.000935312 1e-05
0.0326062 0.000933395 1e-05
0.0327619 0.000931469 1e-05
0.0329175 0.000929532 1e-05
0.0330744 0.000927592 1e-05
0.0332313 0.000925618 1e-05
0.0333881 0.000923633 1e-05
[...]
POINT_DATA 11920
 FIELD attributes 1
U 3 11920 float
9.9991 	0.00338339 	0 9.99878 	0.00857241 	0 9.99915 	0.0123329 	0 9.99953 	0.0160836 	0 9.99991 	0.0198245 	0 10.003 	0.0406822 	0 10.0034 	0.0140581 	0 10.0062 	0.0131922 	0 10.009 	0.0123227 	0 10.0118 	0.0114494 	0 10.0151 	0.0312083 	0 10.0176 	0.00791808 	0 10.0202 	0.00839204 	0 10.0228 	0.00886919 	0 10.0253 	0.00934955 	0 10.0255 	0.0285367 	0 10.0288 	0.0116163 	0 10.0301 	0.013264 	0 10.0315 	0.0149222 	0 10.0329 	0.0165912 	0 10.0303 	0.032809 	0 10.0348 	0.0205545 	0 10.0356 	0.0221575 	0 10.0365 	0.0237695 	0 10.0374 	0.0253906 	0 10.0331 	0.0376101 	0 10.0383 	0.0290426 	0 10.0388 	0.0303259 	0 10.0392 	0.0316153 	0 10.0397 	0.0329109 	0 10.0344 	0.0415006 	0 10.0398 	0.0358728 	0 10.0399 	0.0368759 	0 10.0401 	0.037883 	0 10.0402 	0.0388941 	0 10.0346 	0.0445923 	0 10.0397 	0.0411707 	0 10.0395 	0.0419399 	0 10.0394 	0.0427115 	0 10.0392 	0.0434856 	0 10.0342 	0.0470038 	0 10.0384 	0.0451514 	0 10.038 	0.0457236 	0 10.0377 	0.0462972 	0 10.0373 	0.0468723 	0 10.0335 	0.048813 	0 10.0363 	0.0480286 	0 10.0358 	0.0484396 	0 10.0354 	0.0488515 	0 10.0349 	0.0492642 	0 10.0329 	0.0501085 	0 10.0339 	0.0499234 	0 10.0336 	0.0501129 	0 10.0332 	0.0503027 	0 10.0328 	0.0504926 	0 10.0324 	0.0506814 	0 10.0322 	0.0507725 	0 10.032 	0.0508638 	0 10.0319 	0.050955 	0 10.0317 	0.0510464 	0 10.0314 	0.0510398 	0 10.0309 	0.0512911 	0 10.0302 	0.0514661 	0 10.0296 	0.0516414 	0 10.0289 	0.0518169 	0 10.0278 	0.0516647 	0 10.0278 	0.0520185 	0 10.0271 	0.0521146 	0 10.0264 	0.0522108 	0 10.0257 	0.0523071 	0 10.0241 	0.051923 	0 10.0247 	0.0523417 	0 10.024 	0.0523803 	0 10.0233 	0.0524189 	0 10.0226 	0.0524576 	0 10.0204 	0.0519205 	0 10.0217 	0.0523839 	0 10.0211 	0.0523915 	0 10.0204 	0.0523991 	0 10.0198 	0.0524066 	0 10.0169 	0.0517821 	0 10.0192 	0.052266 	0 10.0187 	0.0522524 	0 10.0182 	0.0522389 	0 10.0177 	0.0522253 	0 10.0142 	0.0515418 	0 10.0176 	0.0518333 	0 10.0174 	0.0515549 	0 10.0171 	0.0512763 	0 10.0169 	0.0509976 	0 10.0129 	0.0499955 	0 10.0175 	0.0496895 	0 10.0177 	0.0486852 	0 10.0178 	0.0476805 	0 10.018 	0.0466755 	0 10.0134 	0.0450218 	0 10.0185 	0.0447164 	-2.94332e-21 10.0183 	0.0434616 	-7.8712e-21 10.0181 	0.0422064 	-1.27999e-20 10.0179 	0.0409507 	-1.77293e-20 10.0129 	0.0390215 	-2.29976e-20 10.0175 	0.0390136 	-3.56895e-20 10.017 	0.0378797 	-3.55576e-20 10.0165 	0.0367452 	-3.54215e-20 10.016 	0.0356101 	-3.52811e-20 10.0109 	0.0335967 	-2.17618e-20 10.0152 	0.0338327 	-2.3175e-20 10.0145 	0.0327484 	-2.6225e-20 10.0138 	0.0316632 	-2.92768e-20 10.0131 	0.0305774 	-3.23304e-20 10.0081 	0.028417 	-3.59342e-20 10.0119 	0.0288476 	-4.70373e-20 10.011 	0.0279015 	-4.69038e-20 10.0101 	0.0269548 	-4.67674e-20 10.0092 	0.0260072 	-4.66282e-20 10.0043 	0.0238917 	-3.75956e-20 10.0075 	0.0244596 	-2.73584e-20 10.0063 	0.0237228 	-1.65099e-20 10.0051 	0.0229854 	-5.66188e-21 10.004 	0.0222474 	5.18571e-21 9.99922 	0.0203713 	1.61053e-20 10.0017 	0.0209339 	1.04083e-20 10.0003 	0.0203551 	6.52853e-21 9.99892 	0.0197758 	2.64895e-21 9.99751 	0.0191961 	-1.23048e-21 9.99297 	0.0176223 	-1.69525e-21 9.99475 	0.0180547 	4.54531e-21 9.9931 	0.0175656 	5.25586e-21 9.99145 	0.0170762 	5.96386e-21 9.98979 	0.0165864 	6.66931e-21 9.98553 	0.0153179 	9.21697e-22 9.98651 	0.0155599 	1.64815e-20 9.98458 	0.0151192 	1.97698e-20 9.98266 	0.0146781 	2.30538e-20 9.98073 	0.0142367 	2.63335e-20 9.97678 	0.0132552 	1.82265e-20 9.97685 	0.0132939 	1.55966e-20 9.97463 	0.0128767 	1.16144e-20 9.97241 	0.0124592 	7.63237e-21 9.97018 	0.0120414 	3.65059e-21 9.96658 	0.0113093 	-6.80215e-22 9.96562 	0.0111578 	5.3699e-21 9.96308 	0.010747 	1.12162e-20 9.96053 	0.010336 	1.70629e-20 9.95798 	0.00992476 	2.29098e-20 9.95478 	0.00939172 	2.86064e-20 9.95327 	0.00916583 	2.42668e-20 9.95099 	0.00884033 	1.97804e-20 9.94872 	0.00851469 	1.52941e-20 9.94644 	0.00818892 	1.0808e-20 9.94426 	0.00787591 	6.49954e-21 9.9436 	0.00778297 	5.31155e-21 9.94295 	0.00769002 	4.12367e-21 9.9423 	0.00759706 	2.93591e-21 9.94164 	0.00750408 	1.74827e-21 9.93987 	0.00740804 	9.17416e-23 9.93763 	0.00698942 	-6.59299e-21 9.93432 	0.00656185 	-1.28135e-20 9.93099 	0.00613407 	-1.90366e-20 9.92767 	0.00570607 	-2.52621e-20 9.91784 	0.00519534 	-2.887e-20 9.92036 	0.00486108 	-1.73414e-20 9.91663 	0.0044212 	-5.81146e-21 9.9129 	0.00398112 	5.71848e-21 9.90917 	0.00354083 	1.72484e-20 9.89307 	0.00285202 	2.79504e-20 9.90074 	0.0026712 	3.74923e-20 9.89658 	0.00221678 	4.26936e-20 9.89242 	0.00176218 	4.78969e-20 9.88825 	0.00130737 	5.31022e-20 9.86551 	0.000381087 	5.04501e-20 9.87859 	0.000394864 	4.44871e-20 9.87399 	-7.4995e-05 	3.85759e-20 9.86937 	-0.000545054 	3.26637e-20 9.86476 	-0.00101531 	2.67504e-20 9.83514 	-0.00220905 	2.33254e-20 9.85378 	-0.0019836 	1.17166e-20 9.8487 	-0.00246827 	-1.95477e-21 9.84363 	-0.00295316 	-1.56259e-20 9.83854 	-0.00343826 	-2.92967e-20 9.80196 	-0.00490323 	-3.78743e-20 9.82616 	-0.00446984 	-2.48842e-20 9.82061 	-0.00496825 	-2.41692e-20 9.81506 	-0.00546688 	-2.34494e-20 9.8095 	-0.00596576 	-2.27248e-20 9.76604 	-0.00768492 	-3.81151e-20 9.79565 	-0.00706423 	-3.23251e-20 9.78963 	-0.00757541 	-2.33069e-20 9.7836 	-0.00808684 	-1.42881e-20 9.77756 	-0.00859854 	-5.26863e-21 9.72748 	-0.010539 	0 9.76221 	-0.00976416 	-2.73781e-21 9.75571 	-0.0102873 	-7.50927e-21 9.74921 	-0.0108108 	-1.22803e-20 9.74269 	-0.0113346 	-1.7051e-20 9.6864 	-0.013452 	-1.7031e-20 9.72584 	-0.0125647 	-1.94177e-20 9.71887 	-0.0130993 	-1.93098e-20 9.7119 	-0.0136343 	-1.92011e-20 9.70491 	-0.0141697 	-1.90916e-20 9.64298 	-0.0164118 	-1.79537e-20 9.68657 	-0.0154591 	-1.66843e-20 9.67915 	-0.0160049 	-1.17513e-20 9.67172 	-0.0165511 	-6.81791e-21 9.66427 	-0.0170976 	-1.88409e-21 9.59738 	-0.019408 	-2.05283e-21 9.6445 	-0.0184395 	-3.17145e-21 9.63664 	-0.0189963 	-1.18691e-20 9.62876 	-0.0195534 	-2.0566e-20 9.62088 	-0.0201111 	-2.92621e-20 9.54981 	-0.022431 	-3.18786e-20 9.59974 	-0.0214973 	4.52473e-23 9.59146 	-0.0220649 	9.31949e-22 9.58317 	-0.022633 	1.82438e-21 9.57486 	-0.0232016 	2.72255e-21 9.50047 	-0.0254725 	-3.0863e-20 9.55247 	-0.0246231 	-2.86026e-20 9.54379 	-0.0252015 	-1.95491e-20 9.5351 	-0.0257804 	-1.04946e-20 9.52639 	-0.0263599 	-1.43933e-21 9.44957 	-0.0285248 	0 9.50287 	-0.0278072 	0 9.49381 	-0.0283962 	0 9.48474 	-0.0289858 	0 9.47566 	-0.029576 	0 9.39733 	-0.0315805 	0 9.45116 	-0.0310396 	4.66513e-22 9.44176 	-0.0316389 	9.8282e-21 9.43234 	-0.0322389 	1.91889e-20 9.42276 	-0.032842 	2.85487e-20 9.34395 	-0.0346326 	3.79329e-20 9.39539 	-0.034342 	2.82582e-20 9.38786 	-0.0349188 	3.66333e-20 9.37812 	-0.0355287 	4.56775e-20 9.36287 	-0.0362129 	5.5294e-20 9.28963 	-0.0376745 	7.09755e-20 9.33545 	-0.0376828 	5.45829e-20 9.33239 	-0.0382251 	4.37323e-20 9.32235 	-0.0388441 	3.36679e-20 9.30228 	-0.0395549 	2.64438e-20 9.23457 	-0.0406994 	3.27357e-20 9.27494 	-0.0409916 	2.6019e-20 9.2756 	-0.0415459 	1.3801e-20 9.26529 	-0.042173 	6.32148e-23 9.24126 	-0.0428573 	-1.04693e-20 9.17896 	-0.0436999 	-1.20507e-20 9.2141 	-0.0442583 	3.26989e-20 9.21777 	-0.0448684 	4.72962e-20 9.20722 	-0.0455022 	4.827e-20 9.18007 	-0.0461095 	3.30019e-20 9.12296 	-0.0466679 	-1.16049e-20 9.15317 	-0.0474721 	-9.75826e-21 9.15917 	-0.0481785 	-6.51622e-21 9.1484 	-0.0488177 	-2.30728e-21 9.11892 	-0.0493013 	0 9.06676 	-0.0495961 	0 9.09237 	-0.0506244 	0 9.10007 	-0.0514642 	0 9.0891 	-0.0521074 	0 9.05802 	-0.0524266 	0 9.01051 	-0.0524805 	0 9.03187 	-0.0537109 	0 9.0407 	-0.0547166 	0 9.02956 	-0.0553629 	0 8.99754 	-0.0554823 	0 8.95434 	-0.0553192 	0 8.97184 	-0.0567283 	0 8.98131 	-0.0579268 	1.71183e-21 8.97003 	-0.058575 	7.87742e-21 8.93764 	-0.0584651 	2.16427e-20 8.8984 	-0.0581091 	3.78756e-20 8.91239 	-0.059673 	1.46428e-19 8.92211 	-0.0610853 	2.36451e-19 8.91069 	-0.0617339 	2.3397e-19 8.87842 	-0.0613721 	1.38609e-19 8.84279 	-0.0608475 	2.83096e-20 8.85365 	-0.0625423 	-2.70003e-20 8.86327 	-0.0641834 	-7.97579e-20 8.85176 	-0.0648314 	-8.6921e-20 8.81999 	-0.0642015 	-4.86441e-20 8.78763 	-0.0635327 	-8.99728e-21 8.79571 	-0.0653353 	-6.84314e-21 8.80372 	-0.0671399 	-4.68634e-21 8.7919 	-0.0677419 	8.20311e-21 8.76245 	-0.0669533 	1.44302e-20 8.73302 	-0.0661641 	2.06586e-20 8.73864 	-0.0680523 	1.38873e-20 8.7442 	-0.0699424 	7.11203e-21 8.73272 	-0.0705145 	1.746e-20 8.70587 	-0.0696288 	4.66646e-20 8.67904 	-0.0687425 	7.58708e-20 8.68252 	-0.0706951 	1.26923e-19 8.68593 	-0.0726498 	1.77972e-19 8.67484 	-0.0731917 	1.65451e-19 8.6503 	-0.0722312 	9.59619e-20 8.62579 	-0.0712698 	2.64711e-20 8.62741 	-0.0732676 	1.56462e-20 8.62895 	-0.0752673 	4.82479e-21 8.61829 	-0.0757793 	-6.29053e-21 8.59579 	-0.0747648 	-1.80539e-20 8.57331 	-0.0737494 	-2.98184e-20 8.57332 	-0.0757745 	-1.7744e-20 8.57326 	-0.0778017 	-5.66703e-21 8.56307 	-0.0782847 	3.87385e-21 8.54236 	-0.0772354 	1.27418e-20 8.52168 	-0.0761853 	2.16114e-20 8.52031 	-0.0782222 	1.22888e-20 8.51886 	-0.0802611 	2.96267e-21 8.50917 	-0.0807164 	7.61168e-21 8.49004 	-0.0796502 	1.65868e-20 8.47094 	-0.0785831 	2.55592e-20 8.46838 	-0.0806181 	5.64332e-20 8.46574 	-0.0826551 	8.73138e-20 8.45658 	-0.0830844 	8.4184e-20 8.43883 	-0.0820171 	4.25283e-20 8.42112 	-0.080949 	8.67948e-22 8.41755 	-0.0829706 	4.77114e-21 8.4139 	-0.0849942 	8.68368e-21 8.40528 	-0.0853995 	-1.16389e-20 8.38874 	-0.0843452 	-2.92405e-20 8.37225 	-0.0832901 	-4.68414e-20 8.36781 	-0.0852891 	-1.45242e-19 8.36301 	-0.0871686 	-2.35837e-19 8.35449 	-0.0875245 	-2.28286e-19 8.33978 	-0.0866439 	-1.35173e-19 8.32435 	-0.0856139 	-3.17727e-20 8.31918 	-0.0875829 	-1.9476e-20 8.31329 	-0.089217 	-7.86244e-21 8.3049 	-0.0895778 	1.16641e-21 8.29193 	-0.0889231 	1.51375e-20 8.27744 	-0.0879284 	3.07624e-20 8.27164 	-0.0898619 	5.25139e-20 8.26496 	-0.0912534 	6.3073e-20 8.2567 	-0.0916206 	5.25332e-20 8.24517 	-0.0911925 	2.86809e-20 8.23152 	-0.0902413 	-3.91942e-21 8.22518 	-0.0921357 	-8.56492e-20 8.21795 	-0.0932915 	-1.27922e-19 8.20981 	-0.0936668 	-1.2855e-19 8.19949 	-0.0934623 	-9.93327e-20 8.18658 	-0.0925612 	-3.42881e-20 8.17978 	-0.0944148 	-2.46904e-20 8.17221 	-0.0953453 	-2.29228e-20 8.16417 	-0.095731 	-2.57756e-20 8.15485 	-0.0957443 	-3.15395e-20 8.14261 	-0.0948986 	-4.40101e-20 8.13542 	-0.0967113 	-1.06042e-19 8.12766 	-0.0974294 	-1.17039e-19 8.11973 	-0.0978275 	-1.13106e-19 8.11123 	-0.0980508 	-1.00304e-19 8.09958 	-0.0972645 	-3.63604e-20 8.09205 	-0.0990373 	-2.69638e-20 8.08425 	-0.099557 	-1.79815e-20 8.07641 	-0.0999693 	-9.03556e-21 8.06856 	-0.100382 	-9.06218e-23 8.05747 	-0.0996689 	8.26653e-21 8.04966 	-0.101311 	-1.80195e-22 8.04193 	-0.101739 	-2.73031e-21 8.03417 	-0.102168 	-5.2807e-21 8.0264 	-0.102596 	-7.83136e-21 8.01626 	-0.102121 	7.08694e-21 8.00828 	-0.103541 	2.18155e-20 8.00063 	-0.103986 	3.2188e-20 7.99296 	-0.104432 	4.2557e-20 7.98527 	-0.104878 	5.29226e-20 7.9759 	-0.10463 	4.42825e-20 7.96789 	-0.105843 	5.59755e-20 7.96031 	-0.106308 	5.79836e-20 7.95271 	-0.106772 	5.99898e-20 7.94509 	-0.107238 	6.19942e-20 7.93637 	-0.107205 	4.51056e-20 7.92842 	-0.108227 	4.02239e-20 7.92091 	-0.108712 	2.92716e-20 7.91337 	-0.109197 	1.83206e-20 7.90581 	-0.109683 	7.37113e-21 7.89762 	-0.109855 	-2.68643e-21 7.88982 	-0.1107 	0 7.88236 	-0.111207 	0 7.87488 	-0.111714 	0 7.86738 	-0.112222 	0 7.85961 	-0.112589 	0 7.85303 	-0.113198 	3.27882e-21 7.84663 	-0.113656 	7.20331e-21 7.84022 	-0.114115 	1.11283e-20 7.83378 	-0.114573 	1.50536e-20 7.82758 	-0.115014 	1.8828e-20 7.82647 	-0.11509 	1.94307e-20 7.82535 	-0.115167 	2.00333e-20 7.82424 	-0.115243 	2.06359e-20 7.82312 	-0.115319 	2.12386e-20 7.82217 	-0.115372 	2.18375e-20 7.8144 	-0.11595 	2.3631e-20 7.8067 	-0.116508 	2.46196e-20 7.79896 	-0.117066 	2.56123e-20 7.79121 	-0.117624 	2.66091e-20 7.78475 	-0.118003 	2.10247e-20 7.77642 	-0.11875 	1.32809e-20 7.76875 	-0.119332 	4.58871e-21 7.76105 	-0.119915 	-4.10345e-21 7.75332 	-0.120499 	-1.27956e-20 7.74801 	-0.120753 	-1.96585e-20 7.73913 	-0.121663 	-3.05395e-20 7.73148 	-0.122272 	-2.76814e-20 7.72381 	-0.122881 	-2.48283e-20 7.71611 	-0.123491 	-2.19805e-20 7.71192 	-0.123627 	-1.02728e-21 7.70248 	-0.124696 	-2.09601e-20 7.69485 	-0.125333 	-1.81314e-20 7.6872 	-0.12597 	-1.53095e-20 7.67951 	-0.126608 	-1.24944e-20 7.6764 	-0.126633 	1.72157e-20 7.66642 	-0.127859 	1.15699e-20 7.6588 	-0.128525 	-4.35039e-22 7.65115 	-0.129191 	-1.24392e-20 7.64348 	-0.129858 	-2.44426e-20 7.64142 	-0.129779 	-3.23946e-20 7.63101 	-0.131131 	-2.39845e-20 7.62327 	-0.131855 	-2.30279e-20 7.61562 	-0.132552 	-2.23894e-20 7.60886 	-0.13313 	-2.30897e-20 7.60691 	-0.133072 	-3.09181e-20 7.59656 	-0.134438 	-2.24456e-20 7.58822 	-0.135331 	-1.10874e-20 7.58056 	-0.13606 	1.27482e-21 7.5749 	-0.136525 	1.05494e-20 7.57282 	-0.13652 	1.43266e-20 7.56252 	-0.137901 	4.23713e-20 7.55358 	-0.13896 	5.63965e-20 7.54591 	-0.139722 	5.74836e-20 7.54131 	-0.140081 	4.19004e-20 7.53911 	-0.140129 	1.34764e-20 7.52885 	-0.141526 	9.34308e-21 7.51931 	-0.142748 	1.91013e-21 7.51161 	-0.143544 	-1.34988e-20 7.50805 	-0.143802 	-3.18798e-20 7.5057 	-0.143904 	-5.11278e-20 7.49548 	-0.145319 	-1.25289e-19 7.48535 	-0.146701 	-1.95249e-19 7.47761 	-0.147532 	-1.98597e-19 7.47506 	-0.147696 	-1.24962e-19 7.47256 	-0.147851 	-5.03877e-20 7.46236 	-0.149287 	-3.07427e-20 7.4521 	-0.150723 	-1.10962e-20 7.44493 	-0.151557 	-2.97552e-21 7.44229 	-0.151767 	-6.56763e-21 7.43964 	-0.151977 	-1.01596e-20 7.42944 	-0.153435 	-3.67265e-20 7.4192 	-0.154893 	-6.32916e-20 7.41248 	-0.155759 	-6.32068e-20 7.40969 	-0.156025 	-3.62442e-20 7.40688 	-0.15629 	-9.28018e-21 7.39669 	-0.157772 	-5.31269e-21 7.38644 	-0.159254 	-1.34353e-21 7.38017 	-0.160155 	0 7.3772 	-0.160476 	0 7.37422 	-0.160797 	0 7.36402 	-0.162305 	0 7.35376 	-0.163814 	0 7.34791 	-0.16475 	-1.91415e-22 7.34477 	-0.165127 	-3.63835e-21 7.34162 	-0.165505 	-7.085e-21 7.3314 	-0.167041 	-3.25229e-20 7.32174 	-0.1685 	-5.44352e-20 7.31614 	-0.169448 	-5.30335e-20 7.31236 	-0.169985 	-2.9357e-20 7.30902 	-0.170419 	-1.10173e-22 7.29876 	-0.171984 	2.87843e-20 7.2902 	-0.173334 	4.62445e-20 7.28447 	-0.174325 	4.47565e-20 7.27989 	-0.175053 	2.70883e-20 7.27636 	-0.175544 	-5.1042e-21 7.26606 	-0.17714 	-1.42524e-21 7.25856 	-0.178385 	-3.94512e-23 7.25269 	-0.179421 	-1.69624e-23 7.24733 	-0.180338 	-1.65826e-21 7.24359 	-0.180886 	-8.41161e-21 7.23324 	-0.182514 	-8.73858e-22 7.22676 	-0.183659 	0 7.22075 	-0.184741 	0 7.2147 	-0.185823 	0 7.21066 	-0.18645 	6.21589e-21 7.20088 	-0.188033 	-1.04065e-21 7.19476 	-0.189161 	-8.11365e-21 7.1886 	-0.19029 	-1.51889e-20 7.18239 	-0.191418 	-2.22665e-20 7.17751 	-0.192241 	-2.50244e-20 7.16879 	-0.19372 	-5.61653e-20 7.1625 	-0.194895 	-5.38793e-20 7.15617 	-0.196071 	-5.15787e-20 7.1498 	-0.197246 	-4.92635e-20 7.14408 	-0.198263 	-3.03911e-20 7.13639 	-0.199642 	-1.80879e-20 7.12992 	-0.200864 	-1.33276e-20 7.12342 	-0.202087 	-8.58004e-21 7.11686 	-0.203309 	-3.84518e-21 7.11032 	-0.204519 	4.45439e-22 7.10967 	-0.204637 	4.23179e-22 7.10913 	-0.204742 	9.82824e-22 7.10858 	-0.204847 	1.54249e-21 7.10803 	-0.204952 	2.10217e-21 7.10748 	-0.205057 	2.65871e-21 7.10109 	-0.206219 	8.11024e-21 7.09467 	-0.207382 	1.35595e-20 7.0882 	-0.208544 	1.90064e-20 7.08169 	-0.209706 	2.4451e-20 7.07526 	-0.210746 	3.17334e-20 7.06852 	-0.212185 	3.1155e-20 7.06132 	-0.213499 	3.61725e-20 7.05407 	-0.214814 	4.11816e-20 7.04678 	-0.216128 	4.61822e-20 7.03969 	-0.21719 	5.51869e-20 7.03318 	-0.21881 	2.60639e-20 7.02576 	-0.220171 	1.66358e-20 7.0183 	-0.221532 	7.18736e-21 7.01078 	-0.222894 	-2.28141e-21 7.0036 	-0.223873 	2.23517e-20 6.99725 	-0.225654 	4.28991e-20 6.98967 	-0.227081 	3.92718e-20 6.98197 	-0.228489 	3.42845e-20 6.97432 	-0.229795 	2.45172e-20 6.96693 	-0.230794 	1.45028e-22 6.96033 	-0.232614 	8.82097e-24 6.95298 	-0.234228 	3.01567e-21 6.94504 	-0.235681 	8.48887e-21 6.93728 	-0.236899 	1.39586e-20 6.92962 	-0.23795 	1.94258e-20 6.92276 	-0.239808 	1.31064e-20 6.91564 	-0.241607 	7.64874e-21 6.90745 	-0.243104 	6.7395e-21 6.89954 	-0.244234 	1.46587e-20 6.89161 	-0.245336 	2.32216e-20 6.88448 	-0.24723 	3.71745e-20 6.87728 	-0.249124 	5.11252e-20 6.86922 	-0.250642 	5.07508e-20 6.86106 	-0.251794 	3.60531e-20 6.85285 	-0.252945 	2.13529e-20 6.84544 	-0.254874 	1.26387e-20 6.83795 	-0.256803 	3.92275e-21 6.83024 	-0.258373 	3.15194e-21 6.82178 	-0.259571 	1.33249e-20 6.81328 	-0.26077 	2.34938e-20 6.80556 	-0.262732 	-1.04313e-20 6.79779 	-0.264683 	-4.31735e-20 6.79025 	-0.266271 	-3.8532e-20 6.78164 	-0.267557 	-7.63955e-21 6.77283 	-0.268799 	2.71089e-20 6.76481 	-0.270792 	3.43038e-20 6.75684 	-0.272631 	3.68155e-20 6.74899 	-0.274256 	3.27955e-20 6.74059 	-0.275739 	2.36829e-20 6.73146 	-0.277022 	7.29602e-21 6.72312 	-0.279044 	-1.95326e-20 6.71494 	-0.280769 	-2.54357e-20 6.70675 	-0.282426 	-2.65585e-20 6.6985 	-0.284082 	-2.76699e-20 6.68911 	-0.285425 	-1.52469e-20 6.6805 	-0.287393 	-9.09831e-21 6.67204 	-0.28908 	-9.25572e-21 6.66351 	-0.290767 	-9.41631e-21 6.65491 	-0.292453 	-9.58009e-21 6.64574 	-0.293995 	-1.28393e-20 6.63816 	-0.295591 	-7.71142e-21 6.63061 	-0.297058 	-3.70235e-21 6.62302 	-0.298524 	3.06675e-22 6.61538 	-0.299991 	4.31565e-21 6.60816 	-0.301367 	8.07761e-21 6.60689 	-0.301632 	8.54909e-21 6.60562 	-0.301896 	9.0203e-21 6.60435 	-0.302161 	9.49124e-21 6.60308 	-0.302425 	9.96191e-21 6.60176 	-0.302665 	1.15356e-20 6.59361 	-0.30443 	1.76803e-20 6.58525 	-0.306168 	2.3072e-20 6.57683 	-0.307905 	2.84692e-20 6.56835 	-0.309642 	3.3872e-20 6.55949 	-0.311194 	3.12436e-20 6.55186 	-0.313159 	3.6056e-20 6.54315 	-0.314915 	3.42085e-20 6.53438 	-0.316671 	3.23651e-20 6.52554 	-0.318427 	3.05258e-20 6.51605 	-0.319837 	1.82703e-20 6.50885 	-0.32198 	1.32965e-20 6.49988 	-0.323771 	1.21132e-20 6.49074 	-0.325542 	1.11426e-20 6.48134 	-0.327194 	1.16884e-20 6.47141 	-0.328575 	1.57399e-20 6.46382 	-0.330723 	2.76905e-20 6.4554 	-0.332716 	3.48503e-20 6.4459 	-0.334497 	3.55165e-20 6.43584 	-0.335993 	2.61481e-20 6.42554 	-0.337389 	1.322e-20 6.41755 	-0.339538 	8.5131e-21 6.40949 	-0.341687 	3.80313e-21 6.39969 	-0.343447 	1.70193e-21 6.38908 	-0.344852 	3.63748e-21 6.37842 	-0.346258 	5.57211e-21 6.37002 	-0.348404 	3.20703e-21 6.36155 	-0.350551 	8.40322e-22 6.35204 	-0.35234 	-2.06008e-21 6.34106 	-0.35375 	-4.3532e-21 6.33001 	-0.355161 	-6.65024e-21 6.32121 	-0.357301 	-5.55052e-21 6.31225 	-0.359396 	-4.67849e-21 6.30266 	-0.361161 	-5.4767e-21 6.29175 	-0.362666 	-7.40207e-21 6.28032 	-0.364078 	-9.73792e-21 6.2711 	-0.366206 	-8.65094e-21 6.26142 	-0.36811 	-6.21739e-21 6.25141 	-0.369867 	-2.89712e-21 6.24113 	-0.371578 	0 6.22931 	-0.372985 	0 6.21961 	-0.375062 	0 6.20926 	-0.376805 	0 6.19885 	-0.378548 	0 6.18836 	-0.380291 	0 6.17698 	-0.381863 	0 6.16908 	-0.383323 	0 6.1609 	-0.384638 	0 6.15267 	-0.385953 	0 6.1444 	-0.387268 	0 6.1365 	-0.388516 	0 6.13391 	-0.388941 	0 6.13131 	-0.389366 	0 6.1287 	-0.38979 	0 6.1261 	-0.390215 	0 6.12359 	-0.390593 	-8.58125e-22 6.11295 	-0.392358 	4.67898e-23 6.10217 	-0.394067 	1.02213e-22 6.09132 	-0.395776 	1.57588e-22 6.08039 	-0.397485 	2.12916e-22 6.06992 	-0.398959 	-5.27626e-21 6.05918 	-0.40092 	-9.8826e-21 6.04799 	-0.402603 	-1.13449e-20 6.03672 	-0.404286 	-1.28163e-20 6.02552 	-0.405907 	-1.22632e-20 6.01492 	-0.407224 	-1.7767e-21 6.00386 	-0.409216 	-5.0458e-22 5.99249 	-0.411034 	-1.21084e-21 5.98081 	-0.412686 	-3.81866e-21 5.96962 	-0.41408 	-4.26681e-21 5.95859 	-0.415367 	-3.83298e-21 5.94714 	-0.41732 	-3.12102e-21 5.9356 	-0.419271 	-2.40422e-21 5.92381 	-0.420859 	-3.23434e-21 5.91242 	-0.422112 	-8.36643e-21 5.90097 	-0.423366 	-1.34997e-20 5.88911 	-0.425275 	-8.04154e-21 5.87717 	-0.427185 	-2.58319e-21 5.86575 	-0.428769 	-5.39763e-21 5.85394 	-0.429984 	-1.59528e-20 5.84206 	-0.431199 	-2.65114e-20 5.82981 	-0.433062 	-5.67515e-20 5.81778 	-0.434777 	-6.8477e-20 5.80611 	-0.436276 	-5.35628e-20 5.79421 	-0.437674 	-3.17825e-20 5.78192 	-0.438846 	5.24299e-21 5.76928 	-0.44066 	-2.57361e-20 5.75727 	-0.44211 	-1.90436e-20 5.7452 	-0.44356 	-1.23141e-20 5