# vtk DataFile Version 2.0
track0
ASCII
DATASET POLYDATA
POINTS 12035 float
-0.0205 0.001 1e-05
-0.0202034 0.0010001 1e-05
-0.0199069 0.00100036 1e-05
-0.0196103 0.00100074 1e-05
-0.0193137 0.00100124 1e-05
-0.0190172 0.00100185 1e-05
-0.0187132 0.00100311 1e-05
-0.0184093 0.00100357 1e-05
-0.0181054 0.001004 1e-05
-0.0178015 0.00100442 1e-05
-0.0174976 0.00100481 1e-05
-0.0172058 0.00100576 1e-05
-0.016914 0.00100604 1e-05
-0.0166222 0.00100635 1e-05
-0.0163305 0.00100667 1e-05
-0.0160387 0.00100701 1e-05
-0.0157586 0.00100787 1e-05
-0.0154784 0.00100826 1e-05
-0.0151983 0.00100872 1e-05
-0.0149182 0.00100922 1e-05
-0.0146381 0.00100977 1e-05
-0.0143692 0.00101074 1e-05
-0.0141002 0.00101139 1e-05
-0.0138313 0.00101208 1e-05
-0.0135624 0.00101283 1e-05
-0.0132934 0.00101363 1e-05
-0.0130353 0.00101471 1e-05
-0.0127771 0.00101558 1e-05
-0.0125189 0.00101649 1e-05
-0.0122607 0.00101745 1e-05
-0.0120025 0.00101844 1e-05
-0.0117547 0.0010196 1e-05
-0.0115068 0.00102064 1e-05
-0.0112589 0.00102171 1e-05
-0.0110111 0.00102282 1e-05
-0.0107632 0.00102396 1e-05
-0.0105252 0.00102518 1e-05
-0.0102873 0.00102634 1e-05
-0.0100493 0.00102753 1e-05
-0.00981133 0.00102875 1e-05
-0.00957337 0.00103 1e-05
-0.00934491 0.00103127 1e-05
-0.00911645 0.00103252 1e-05
-0.00888799 0.00103379 1e-05
-0.00865954 0.00103509 1e-05
-0.00843108 0.0010364 1e-05
-0.00830139 0.00103717 1e-05
-0.00817169 0.00103794 1e-05
-0.008042 0.00103872 1e-05
-0.00791231 0.0010395 1e-05
-0.0077893 0.00104025 1e-05
-0.00769833 0.00104081 1e-05
-0.00760735 0.00104137 1e-05
-0.00751638 0.00104194 1e-05
-0.00742541 0.00104251 1e-05
-0.00733443 0.00104308 1e-05
-0.00712387 0.00104441 1e-05
-0.0069133 0.00104576 1e-05
-0.00670273 0.00104712 1e-05
-0.00649217 0.0010485 1e-05
-0.0062816 0.0010499 1e-05
-0.00607944 0.00105125 1e-05
-0.00587729 0.00105262 1e-05
-0.00567514 0.001054 1e-05
-0.00547298 0.0010554 1e-05
-0.00527083 0.00105681 1e-05
-0.00507675 0.00105816 1e-05
-0.00488267 0.00105954 1e-05
-0.0046886 0.00106093 1e-05
-0.00449452 0.00106234 1e-05
-0.00430044 0.00106375 1e-05
-0.00411412 0.00106511 1e-05
-0.0039278 0.00106649 1e-05
-0.00374147 0.00106789 1e-05
-0.00355515 0.00106929 1e-05
-0.00336883 0.00107072 1e-05
-0.00318995 0.00107208 1e-05
-0.00301107 0.00107347 1e-05
-0.00283219 0.00107489 1e-05
-0.00265331 0.00107632 1e-05
-0.00247443 0.00107778 1e-05
-0.0023027 0.00107919 1e-05
-0.00213097 0.00108065 1e-05
-0.00195924 0.00108215 1e-05
-0.00178751 0.00108369 1e-05
-0.00161577 0.00108527 1e-05
-0.0014509 0.00108683 1e-05
-0.00128603 0.00108848 1e-05
-0.00112116 0.0010902 1e-05
-0.000956294 0.001092 1e-05
-0.000791418 0.00109388 1e-05
-0.000633135 0.00109577 1e-05
-0.000474853 0.00109779 1e-05
-0.000316572 0.00109991 1e-05
-0.000158293 0.00110214 1e-05
1.35525e-20 0.00110448 1e-05
0.000105677 0.00110613 1e-05
0.000211353 0.00110787 1e-05
0.000317028 0.0011097 1e-05
0.0004227 0.00111163 1e-05
0.000528387 0.00111366 1e-05
0.000634886 0.0011158 1e-05
0.000741383 0.00111808 1e-05
0.000847876 0.00112049 1e-05
0.000954366 0.00112303 1e-05
0.00106088 0.00112571 1e-05
0.00116821 0.00112851 1e-05
0.00127553 0.00113148 1e-05
0.00138285 0.0011346 1e-05
0.00149017 0.00113785 1e-05
0.00159752 0.00114125 1e-05
0.00170568 0.0011448 1e-05
0.00181384 0.0011485 1e-05
0.00192199 0.00115235 1e-05
0.00203013 0.00115635 1e-05
0.00213833 0.00116048 1e-05
0.00224733 0.00116474 1e-05
0.00235632 0.00116916 1e-05
0.00246532 0.00117372 1e-05
0.0025743 0.0011784 1e-05
0.00268334 0.00118319 1e-05
0.00279319 0.00118809 1e-05
0.00290303 0.00119312 1e-05
0.00301287 0.00119827 1e-05
0.0031227 0.00120352 1e-05
0.00323259 0.00120883 1e-05
0.00334329 0.00121422 1e-05
0.00345399 0.00121971 1e-05
0.00356469 0.00122528 1e-05
0.00367538 0.00123091 1e-05
0.00378611 0.00123656 1e-05
0.00389767 0.00124224 1e-05
0.00400923 0.00124798 1e-05
0.00412079 0.00125376 1e-05
0.00423235 0.00125955 1e-05
0.00434393 0.0012653 1e-05
0.00445636 0.00127105 1e-05
0.00456879 0.00127679 1e-05
0.00468123 0.00128254 1e-05
0.00479366 0.00128823 1e-05
0.00490609 0.00129384 1e-05
0.0050194 0.00129939 1e-05
0.00513271 0.00130489 1e-05
0.00524602 0.00131033 1e-05
0.00535933 0.00131567 1e-05
0.00547262 0.00132087 1e-05
0.00558681 0.00132596 1e-05
0.005701 0.00133094 1e-05
0.0058152 0.0013358 1e-05
0.0059294 0.0013405 1e-05
0.00604356 0.00134502 1e-05
0.00615863 0.00134937 1e-05
0.00627371 0.00135355 1e-05
0.0063888 0.00135755 1e-05
0.0065039 0.00136134 1e-05
0.00661893 0.00136489 1e-05
0.0067349 0.00136822 1e-05
0.00685088 0.00137132 1e-05
0.00696686 0.00137417 1e-05
0.00708285 0.00137676 1e-05
0.00719878 0.00137906 1e-05
0.00731565 0.00138109 1e-05
0.00743253 0.00138282 1e-05
0.00754941 0.00138425 1e-05
0.00766629 0.00138537 1e-05
0.00778313 0.00138615 1e-05
0.00790091 0.00138662 1e-05
0.00801869 0.00138672 1e-05
0.00813648 0.00138647 1e-05
0.00825425 0.00138587 1e-05
0.00837203 0.0013849 1e-05
0.00849073 0.00138355 1e-05
0.00860942 0.00138179 1e-05
0.0087281 0.00137964 1e-05
0.00884678 0.00137709 1e-05
0.00896551 0.00137414 1e-05
0.00908513 0.00137076 1e-05
0.00920473 0.00136694 1e-05
0.00932432 0.00136268 1e-05
0.0094439 0.00135799 1e-05
0.0095636 0.00135287 1e-05
0.00968415 0.00134727 1e-05
0.00980468 0.00134121 1e-05
0.00992518 0.00133467 1e-05
0.0100457 0.00132768 1e-05
0.0101663 0.00132022 1e-05
0.0102878 0.00131225 1e-05
0.0104093 0.00130379 1e-05
0.0105307 0.00129484 1e-05
0.0106521 0.00128541 1e-05
0.0107738 0.00127547 1e-05
0.0108962 0.001265 1e-05
0.0110186 0.00125403 1e-05
0.0111409 0.00124256 1e-05
0.0112632 0.00123059 1e-05
0.0113859 0.00121807 1e-05
0.0115093 0.001205 1e-05
0.0116326 0.00119143 1e-05
0.0117559 0.00117735 1e-05
0.0118791 0.00116278 1e-05
0.0120028 0.00114763 1e-05
0.012019 0.00114558 1e-05
0.0120353 0.00114352 1e-05
0.0120515 0.00114145 1e-05
0.0120677 0.00113937 1e-05
0.0120833 0.00113737 1e-05
0.0121915 0.00112338 1e-05
0.0122997 0.00110901 1e-05
0.0124079 0.00109426 1e-05
0.012516 0.00107913 1e-05
0.0126245 0.00106353 1e-05
0.0127498 0.00104508 1e-05
0.0128751 0.0010261 1e-05
0.0130002 0.00100661 1e-05
0.0131253 0.000986615 1e-05
0.0132511 0.000966006 1e-05
0.0133774 0.000944802 1e-05
0.0135036 0.000923083 1e-05
0.0136297 0.000900843 1e-05
0.0137557 0.000878096 1e-05
0.0138825 0.000854709 1e-05
0.014006 0.000831432 1e-05
0.0141295 0.000807687 1e-05
0.0142529 0.000783484 1e-05
0.0143762 0.000758823 1e-05
0.0144773 0.000738201 1e-05
0.0144856 0.000736479 1e-05
0.0144939 0.000734755 1e-05
0.0145022 0.000733029 1e-05
0.0145105 0.000731301 1e-05
0.0145188 0.000729569 1e-05
0.0146471 0.000702815 1e-05
0.0147752 0.000675563 1e-05
0.0149033 0.000647814 1e-05
0.0150312 0.000619561 1e-05
0.0151601 0.000590573 1e-05
0.0152893 0.000560988 1e-05
0.0154185 0.000530897 1e-05
0.0155475 0.000500292 1e-05
0.0156764 0.000469198 1e-05
0.0158063 0.000437343 1e-05
0.0158698 0.000421536 1e-05
0.0159332 0.000405611 1e-05
0.0159966 0.000389571 1e-05
0.01606 0.000373421 1e-05
0.0161189 0.000358295 1e-05
0.0161867 0.00034079 1e-05
0.0162544 0.000323145 1e-05
0.016322 0.000305358 1e-05
0.0163897 0.000287429 1e-05
0.0164576 0.00026926 1e-05
0.0165889 0.00023387 1e-05
0.01672 0.000197976 1e-05
0.016851 0.000161569 1e-05
0.0169818 0.000124652 1e-05
0.0171139 8.6826e-05 1e-05
0.0171737 6.94608e-05 1e-05
0.0172334 5.19922e-05 1e-05
0.0172931 3.44203e-05 1e-05
0.0173527 1.6747e-05 1e-05
0.0174089 0 1e-05
0.0174822 -2.19842e-05 1e-05
0.0175555 -4.41202e-05 1e-05
0.0176287 -6.64096e-05 1e-05
0.0177018 -8.8854e-05 1e-05
0.0177754 -0.000111599 1e-05
0.0179087 -0.000153132 1e-05
0.0180419 -0.000195133 1e-05
0.0181749 -0.000237613 1e-05
0.0183078 -0.000280585 1e-05
0.018442 -0.000324566 1e-05
0.0185061 -0.000345847 1e-05
0.0185701 -0.000367235 1e-05
0.0186341 -0.000388733 1e-05
0.0186981 -0.000410342 1e-05
0.0187588 -0.000430959 1e-05
0.0188298 -0.000455212 1e-05
0.0189007 -0.000479606 1e-05
0.0189716 -0.000504142 1e-05
0.0190425 -0.000528822 1e-05
0.0191137 -0.000553817 1e-05
0.0192491 -0.000601599 1e-05
0.0193844 -0.000649862 1e-05
0.0195194 -0.000698616 1e-05
0.0196543 -0.000747866 1e-05
0.0197907 -0.000798276 1e-05
0.0198455 -0.000818748 1e-05
0.0199002 -0.000839299 1e-05
0.0199549 -0.00085993 1e-05
0.0200095 -0.00088064 1e-05
0.020062 -0.00090062 1e-05
0.0201442 -0.000932034 1e-05
0.0202264 -0.000963629 1e-05
0.0203084 -0.000995408 1e-05
0.0203904 -0.00102737 1e-05
0.020473 -0.0010598 1e-05
0.0206105 -0.00111413 1e-05
0.0207478 -0.00116894 1e-05
0.0208849 -0.00122425 1e-05
0.0210219 -0.00128005 1e-05
0.0211606 -0.00133716 1e-05
0.0211961 -0.00135196 1e-05
0.0212316 -0.00136679 1e-05
0.0212671 -0.00138165 1e-05
0.0213026 -0.00139655 1e-05
0.0213373 -0.00141114 1e-05
0.0214405 -0.00145468 1e-05
0.0215436 -0.00149849 1e-05
0.0216466 -0.00154258 1e-05
0.0217495 -0.00158695 1e-05
0.0218535 -0.0016321 1e-05
0.0219931 -0.00169322 1e-05
0.0221326 -0.00175483 1e-05
0.0222718 -0.00181694 1e-05
0.0224108 -0.00187953 1e-05
0.0225517 -0.00194361 1e-05
0.0225611 -0.00194789 1e-05
0.0225704 -0.00195217 1e-05
0.0225797 -0.00195646 1e-05
0.022589 -0.00196074 1e-05
0.0225983 -0.001965 1e-05
0.0227297 -0.00202555 1e-05
0.022861 -0.00208651 1e-05
0.022992 -0.00214789 1e-05
0.0231228 -0.00220971 1e-05
0.0232555 -0.0022729 1e-05
0.0233771 -0.00233134 1e-05
0.0234986 -0.00239015 1e-05
0.0236199 -0.00244934 1e-05
0.023741 -0.00250888 1e-05
0.0238543 -0.00256501 1e-05
0.0238764 -0.00257603 1e-05
0.0238984 -0.00258705 1e-05
0.0239205 -0.00259809 1e-05
0.0239426 -0.00260914 1e-05
0.0239647 -0.00262023 1e-05
0.0241076 -0.00269202 1e-05
0.0242503 -0.00276428 1e-05
0.0243928 -0.00283703 1e-05
0.024535 -0.00291028 1e-05
0.0246794 -0.00298527 1e-05
0.0247668 -0.00303107 1e-05
0.0248542 -0.00307706 1e-05
0.0249415 -0.00312325 1e-05
0.0250286 -0.00316961 1e-05
0.0251121 -0.00321422 1e-05
0.0251696 -0.00324511 1e-05
0.0252271 -0.00327608 1e-05
0.0252845 -0.00330712 1e-05
0.0253419 -0.00333824 1e-05
0.0253996 -0.00336965 1e-05
0.0255448 -0.00344884 1e-05
0.0256897 -0.0035285 1e-05
0.0258344 -0.00360866 1e-05
0.0259787 -0.00368929 1e-05
[...]
POINT_DATA 12035
 FIELD attributes 2
p 1 12035 float
5.72509 5.73326 5.74193 5.75064 5.75939 5.7599 5.78877 5.77503 5.7613 5.74759 5.68954 5.687 5.6524 5.6178 5.58319 5.52658 5.53246 5.51138 5.49028 5.46917 5.42954 5.43247 5.41679 5.40109 5.38538 5.35604 5.35538 5.3432 5.331 5.31879 5.2983 5.29756 5.28992 5.28227 5.27461 5.26233 5.26287 5.25956 5.25624 5.25291 5.24736 5.24967 5.25016 5.25065 5.25113 5.25098 5.2539 5.25631 5.25872 5.26113 5.26341 5.26508 5.26676 5.26843 5.2701 5.2721 5.27942 5.28702 5.29461 5.30219 5.31075 5.32112 5.33229 5.34346 5.35464 5.36724 5.38087 5.39575 5.41063 5.4255 5.44216 5.45954 5.4786 5.49765 5.5167 5.53789 5.56016 5.58471 5.60926 5.6338 5.66101 5.69047 5.72322 5.75596 5.7887 5.82494 5.86417 5.90721 5.95024 5.99326 6.03954 6.09084 6.14959 6.20832 6.26702 6.32972 6.39108 6.45729 6.52346 6.58962 6.64992 6.71053 6.77158 6.83259 6.89355 6.93956 6.983 7.02453 7.06598 7.10722 7.13338 7.15913 7.17722 7.19464 7.20937 7.21106 7.2146 7.20659 7.19449 7.17607 7.14651 7.12216 7.08681 7.04089 6.9847 6.92119 6.86667 6.80599 6.72637 6.63344 6.53777 6.45423 6.37066 6.26054 6.13685 6.01316 5.90343 5.7937 5.66274 5.51601 5.3693 5.23701 5.10473 4.95842 4.79394 4.62949 4.4788 4.3281 4.17121 3.99426 3.81733 3.6528 3.48822 3.32406 3.14103 2.95694 2.78385 2.6113 2.44236 2.25966 2.07386 1.89848 1.72438 1.55529 1.3755 1.19235 1.01975 0.848479 0.683262 0.509401 0.333216 0.167296 0.00174176 -0.155486 -0.318665 -0.482741 -0.63748 -0.792812 -0.939591 -1.08588 -1.23298 -1.37185 -1.5114 -1.64413 -1.76922 -1.89527 -2.01411 -2.13372 -2.24551 -2.34764 -2.44958 -2.54518 -2.6349 -2.71943 -2.80334 -2.8793 -2.947 -3.00248 -3.05871 -3.1157 -3.17245 -3.17775 -3.18127 -3.1848 -3.18834 -3.19176 -3.22277 -3.25453 -3.28704 -3.32032 -3.3347 -3.35181 -3.36404 -3.37542 -3.3694 -3.35737 -3.34807 -3.33962 -3.31412 -3.28016 -3.24669 -3.21602 -3.1692 -3.12028 -3.072 -3.0329 -3.03029 -3.02768 -3.02508 -3.02201 -3.01788 -2.95821 -2.8993 -2.84115 -2.77605 -2.70021 -2.6272 -2.55489 -2.4717 -2.38803 -2.30468 -2.26495 -2.22264 -2.17792 -2.13331 -2.09195 -2.04612 -2.00047 -1.955 -1.90833 -1.86073 -1.76196 -1.66383 -1.56718 -1.4721 -1.37655 -1.33124 -1.28568 -1.23925 -1.19292 -1.14938 -1.08948 -1.02972 -0.970102 -0.911498 -0.853275 -0.736859 -0.6209 -0.509436 -0.403 -0.295758 -0.240744 -0.18596 -0.131592 -0.0773178 -0.0258955 0.0362076 0.0982021 0.160086 0.221296 0.282515 0.405902 0.528897 0.649212 0.764721 0.881389 0.930342 0.979148 1.02762 1.07604 1.12252 1.19755 1.27246 1.34725 1.4219 1.49706 1.62471 1.75204 1.87899 2.00328 2.12751 2.15975 2.19197 2.22413 2.25627 2.28767 2.38386 2.47991 2.57582 2.6714 2.76787 2.89786 3.02756 3.15648 3.28514 3.41427 3.4227 3.43112 3.43949 3.44786 3.45619 3.5776 3.69883 3.81987 3.93997 4.06146 4.17223 4.28263 4.39195 4.50112 4.60325 4.62371 4.64417 4.66462 4.6849 4.70516 4.83462 4.96198 5.08907 5.21438 5.34168 5.41793 5.49392 5.56891 5.64383 5.71558 5.76629 5.81698 5.86764 5.91767 5.96785 6.09212 6.21622 6.33849 6.45878 6.58112 6.62289 6.66452 6.70551 6.74648 6.78653 6.86571 6.94484 7.0239 7.10192 7.18055 7.29837 7.41604 7.53165 7.6471 7.76404 7.77391 7.78375 7.79345 7.80315 7.81279 7.91722 8.02155 8.12577 8.22946 8.33474 8.42752 8.52012 8.61228 8.70432 8.79219 8.81136 8.83052 8.84967 8.86898 8.88849 8.9944 9.10058 9.20665 9.31381 9.42317 9.52527 9.62772 9.731 9.83419 9.93942 9.94456 9.94974 9.95496 9.96018 9.96538 10.062 10.1585 10.255 10.3501 10.4458 10.5449 10.6435 10.7402 10.8368 10.9349 10.946 10.957 10.9679 10.9787 10.9895 11.074 11.1585 11.2429 11.3256 11.4086 11.5017 11.5941 11.6843 11.7744 11.8658 11.8706 11.8753 11.8799 11.8845 11.8891 11.9735 12.0579 12.1423 12.2247 12.3075 12.3852 12.4623 12.5375 12.6127 12.6863 12.6958 12.7053 12.7148 12.724 12.7332 12.8165 12.8994 12.9823 13.0625 13.1435 13.1961 13.2484 13.2992 13.3501 13.4003 13.4282 13.456 13.4839 13.5109 13.5377 13.615 13.6922 13.7678 13.8416 13.9159 13.9429 13.9696 13.9955 14.0214 14.0473 14.094 14.1407 14.1875 14.2325 14.2772 14.348 14.4187 14.4865 14.5542 14.6216 14.6252 14.6288 14.6322 14.6357 14.6391 14.702 14.7648 14.8277 14.8879 14.9469 14.9955 15.0438 15.0899 15.1361 15.1834 15.1978 15.2123 15.2267 15.2404 15.2539 15.3135 15.3729 15.4311 15.4867 15.5408 15.5726 15.604 15.6339 15.6639 15.695 15.7182 15.7414 15.7646 15.7867 15.8081 15.86 15.912 15.962 16.01 16.0562 16.0835 16.1103 16.1359 16.1616 16.1889 16.2088 16.2286 16.2485 16.2676 16.2859 16.3303 16.3747 16.4178 16.4588 16.4982 16.5361 16.5727 16.6083 16.6439 16.6847 16.6869 16.6891 16.6913 16.6934 16.6955 16.7328 16.77 16.8071 16.8434 16.8772 16.9126 16.9479 16.9818 17.0144 17.0461 17.0773 17.107 17.1364 17.1658 17.2004 17.2009 17.2014 17.2019 17.2024 17.2029 17.2323 17.2617 17.2911 17.3203 17.3477 17.3755 17.4033 17.4304 17.4563 17.4818 17.5077 17.5334 17.558 17.5822 17.6058 17.6298 17.6526 17.6753 17.698 17.7202 17.7256 17.7307 17.7359 17.741 17.7463 17.7624 17.7784 17.7944 17.8103 17.8256 17.8456 17.8652 17.8848 17.904 17.9225 17.9409 17.9593 17.9772 17.9943 18.0113 18.0282 18.0451 18.0612 18.0769 18.0924 18.1079 18.1231 18.1377 18.1521 18.1663 18.1804 18.1938 18.2071 18.2204 18.2334 18.2453 18.2568 18.2684 18.2799 18.2932 18.2934 18.2935 18.2937 18.2938 18.294 18.305 18.316 18.327 18.3379 18.3487 18.3586 18.3684 18.3783 18.3882 18.3976 18.4064 18.4153 18.4241 18.4327 18.4411 18.4489 18.4568 18.4646 18.4721 18.4795 18.4864 18.4934 18.5002 18.5067 18.5132 18.5192 18.5253 18.5311 18.5367 18.5424 18.5476 18.5528 18.5577 18.5626 18.5674 18.5719 18.5762 18.5803 18.5844 18.5885 18.5922 18.5958 18.5991 18.6025 18.6059 18.609 18.6118 18.6145 18.6172 18.62 18.6223 18.6245 18.6266 18.6287 18.6308 18.6325 18.6341 18.6356 18.6372 18.6387 18.6398 18.6409 18.6419 18.6429 18.6439 18.6442 18.6444 18.6447 18.6449 18.6452 18.6454 18.6457 18.646 18.6463 18.6465 18.6467 18.6468 18.6469 18.647 18.6469 18.6466 18.6463 18.646 18.6456 18.645 18.6444 18.6437 18.643 18.6423 18.6412 18.6403 18.6392 18.6382 18.6371 18.6355 18.6344 18.633 18.6316 18.6302 18.6283 18.6268 18.6252 18.6236 18.6218 18.6196 18.6179 18.6161 18.6141 18.612 18.6097 18.6077 18.6057 18.6035 18.6012 18.5986 18.5964 18.5942 18.5919 18.5892 18.5865 18.5842 18.5818 18.5793 18.5765 18.5736 18.5711 18.5686 18.5659 18.5629 18.5599 18.5573 18.5547 18.5519 18.5488 18.5457 18.543 18.5403 18.5374 18.5342 18.531 18.5282 18.5254 18.5225 18.5192 18.5159 18.5131 18.5102 18.5071 18.5038 18.5005 18.4976 18.4946 18.4915 18.4881 18.4847 18.4818 18.4788 18.4756 18.4721 18.4687 18.4657 18.4626 18.4594 18.4559 18.4525 18.4494 18.4463 18.443 18.4396 18.4361 18.433 18.4299 18.4265 18.423 18.4195 18.4164 18.4132 18.4099 18.4064 18.4029 18.3997 18.3965 18.3931 18.3896 18.3861 18.3829 18.3797 18.3763 18.3728 18.3693 18.3661 18.3629 18.3595 18.356 18.3525 18.3493 18.3461 18.3427 18.3392 18.3358 18.3326 18.3293 18.326 18.3225 18.3191 18.3159 18.3127 18.3093 18.306 18.3026 18.2994 18.2962 18.2929 18.2896 18.2862 18.2831 18.2799 18.2767 18.2734 18.2701 18.267 18.2639 18.2607 18.2575 18.2543 18.2513 18.2482 18.245 18.2419 18.2387 18.2358 18.2327 18.2297 18.2266 18.2235 18.2205 18.2176 18.2145 18.2115 18.2085 18.2056 18.2027 18.1997 18.1967 18.1937 18.1909 18.188 18.1851 18.1822 18.1793 18.1765 18.1737 18.1708 18.1679 18.165 18.1623 18.1595 18.1567 18.1539 18.151 18.1483 18.1456 18.1428 18.14 18.1372 18.1345 18.1318 18.129 18.1262 18.1235 18.1208 18.1181 18.1154 18.1126 18.1099 18.1073 18.1046 18.1019 18.0992 18.0965 18.0939 18.0912 18.0886 18.0859 18.0832 18.0806 18.078 18.0754 18.0727 18.0701 18.0675 18.0649 18.0623 18.0597 18.0571 18.0545 18.0519 18.0493 18.0468 18.0442 18.0416 18.0391 18.0365 18.034 18.0314 18.0289 18.0264 18.0239 18.0213 18.0188 18.0163 18.0139 18.0114 18.0089 18.0064 18.004 18.0015 17.9991 17.9966 17.9942 17.9918 17.9894 17.9869 17.9845 17.9821 17.9797 17.9774 17.975 17.9726 17.9702 17.9678 17.9655 17.9631 17.9607 17.9584 17.9561 17.9537 17.9514 17.949 17.9467 17.9444 17.9421 17.9398 17.9375 17.9352 17.9329 17.9307 17.9284 17.9261 17.9238 17.9216 17.9194 17.9172 17.9149 17.9127 17.9105 17.9083 17.9061 17.9039 17.9017 17.8995 17.8974 17.8952 17.893 17.8908 17.8887 17.8866 17.8844 17.8823 17.8801 17.878 17.8759 17.8738 17.8717 17.8696 17.8675 17.8655 17.8634 17.8613 17.8592 17.8572 17.8552 17.8532 17.8511 17.8491 17.8471 17.8452 17.8432 17.8412 17.8393 17.8374 17.8355 17.8336 17.8317 17.8298 17.8279 17.8261 17.8243 17.8224 17.8206 17.8189 17.8171 17.8154 17.8136 17.8119 17.8102 17.8086 17.8069 17.8053 17.8037 17.8021 17.8006 17.7991 17.7976 17.7961 17.7947 17.7934 17.792 17.7907 17.7894 17.7882 17.7871 17.786 17.7849 17.7839 17.7829 17.782 17.7812 17.7804 17.7797 17.7791 17.7785 17.7781 17.7777 17.7773 17.7771 17.777 17.777 17.7771 17.7772 17.7776 17.778 17.7786 17.7793 17.7801 17.781 17.7822 17.7835 17.785 17.7866 17.7884 17.7905 17.7928 17.7952 17.7978 17.8008 17.804 17.8076 17.8114 17.8154 17.8198 17.8245 17.8298 17.8353 17.8411 17.8474 17.8542 17.8617 17.8696 17.8777 17.8867 17.8961 17.9066 17.9177 17.929 17.9415 17.9545 17.9693 17.9848 18.0004 18.0178 18.0355 18.0561 18.0775 18.099 18.123 18.1469 18.1758 18.2054 18.2349 18.2676 18.3003 18.3352 18.3673 18.3994 18.4339 18.4683 18.5201 18.5894 18.6583 18.7272 18.7956 18.797 18.7324 18.6672 18.5963 18.5251 18.4246 18.3102 18.1955 18.0847 17.9738 17.8654 17.7726 17.6797 17.5933 17.5071 17.4231 17.3441 17.2658 17.1931 17.1197 17.0436 16.966 16.888 16.8142 16.7395 16.6621 16.5832 16.5037 16.4271 16.3498 16.2709 16.1911 16.1109 16.0324 15.9533 15.8729 15.7915 15.7097 15.6287 15.547 15.4638 15.3795 15.2946 15.2097 15.124 15.0368 14.9482 14.859 14.769 14.6783 14.5859 14.492 14.3973 14.3013 14.2045 14.1059 14.0054 13.9042 13.8011 13.6972 13.5912 13.483 13.3741 13.2627 13.1506 13.036 12.9188 12.8008 12.68 12.5584 12.4338 12.3062 12.1778 12.0461 11.9136 11.7777 11.638 11.4976 11.3534 11.2087 11.0596 10.906 10.752 10.5935 10.4347 10.2706 10.1011 9.93132 9.75646 9.5816 9.40016 9.21222 9.0243 8.83052 8.63674 8.43546 8.22684 8.01823 7.80294 7.58765 7.36258 7.128 6.89343 6.65118 6.40892 6.15826 5.89959 5.64093 5.37355 5.10617 4.81305 4.49542 4.17783 3.84939 3.52094 3.22354 2.95558 2.68765 2.4099 2.13214 1.58775 0.793538 0