# vtk DataFile Version 2.0
track0
ASCII
DATASET POLYDATA
POINTS 12035 float
-0.0205 0.001 1e-05
-0.0202034 0.0010001 1e-05
-0.0199069 0.00100036 1e-05
-0.0196103 0.00100074 1e-05
-0.0193137 0.00100124 1e-05
-0.0190172 0.00100185 1e-05
-0.0187132 0.00100311 1e-05
-0.0184093 0.00100357 1e-05
-0.0181054 0.001004 1e-05
-0.0178015 0.00100442 1e-05
-0.0174976 0.00100481 1e-05
-0.0172058 0.00100576 1e-05
-0.016914 0.00100604 1e-05
-0.0166222 0.00100635 1e-05
-0.0163305 0.00100667 1e-05
-0.0160387 0.00100701 1e-05
-0.0157586 0.00100787 1e-05
-0.0154784 0.00100826 1e-05
-0.0151983 0.00100872 1e-05
-0.0149182 0.00100922 1e-05
-0.0146381 0.00100977 1e-05
-0.0143692 0.00101074 1e-05
-0.0141002 0.00101139 1e-05
-0.0138313 0.00101208 1e-05
-0.0135624 0.00101283 1e-05
-0.0132934 0.00101363 1e-05
-0.0130353 0.00101471 1e-05
-0.0127771 0.00101558 1e-05
-0.0125189 0.00101649 1e-05
-0.0122607 0.00101745 1e-05
-0.0120025 0.00101844 1e-05
-0.0117547 0.0010196 1e-05
-0.0115068 0.00102064 1e-05
-0.0112589 0.00102171 1e-05
-0.0110111 0.00102282 1e-05
-0.0107632 0.00102396 1e-05
-0.0105252 0.00102518 1e-05
-0.0102873 0.00102634 1e-05
-0.0100493 0.00102753 1e-05
-0.00981133 0.00102875 1e-05
-0.00957337 0.00103 1e-05
-0.00934491 0.00103127 1e-05
-0.00911645 0.00103252 1e-05
-0.00888799 0.00103379 1e-05
-0.00865954 0.00103509 1e-05
-0.00843108 0.0010364 1e-05
-0.00830139 0.00103717 1e-05
-0.00817169 0.00103794 1e-05
-0.008042 0.00103872 1e-05
-0.00791231 0.0010395 1e-05
-0.0077893 0.00104025 1e-05
-0.00769833 0.00104081 1e-05
-0.00760735 0.00104137 1e-05
-0.00751638 0.00104194 1e-05
-0.00742541 0.00104251 1e-05
-0.00733443 0.00104308 1e-05
-0.00712387 0.00104441 1e-05
-0.0069133 0.00104576 1e-05
-0.00670273 0.00104712 1e-05
-0.00649217 0.0010485 1e-05
-0.0062816 0.0010499 1e-05
-0.00607944 0.00105125 1e-05
-0.00587729 0.00105262 1e-05
-0.00567514 0.001054 1e-05
-0.00547298 0.0010554 1e-05
-0.00527083 0.00105681 1e-05
-0.00507675 0.00105816 1e-05
-0.00488267 0.00105954 1e-05
-0.0046886 0.00106093 1e-05
-0.00449452 0.00106234 1e-05
-0.00430044 0.00106375 1e-05
-0.00411412 0.00106511 1e-05
-0.0039278 0.00106649 1e-05
-0.00374147 0.00106789 1e-05
-0.00355515 0.00106929 1e-05
-0.00336883 0.00107072 1e-05
-0.00318995 0.00107208 1e-05
-0.00301107 0.00107347 1e-05
-0.00283219 0.00107489 1e-05
-0.00265331 0.00107632 1e-05
-0.00247443 0.00107778 1e-05
-0.0023027 0.00107919 1e-05
-0.00213097 0.00108065 1e-05
-0.00195924 0.00108215 1e-05
-0.00178751 0.00108369 1e-05
-0.00161577 0.00108527 1e-05
-0.0014509 0.00108683 1e-05
-0.00128603 0.00108848 1e-05
-0.00112116 0.0010902 1e-05
-0.000956294 0.001092 1e-05
-0.000791418 0.00109388 1e-05
-0.000633135 0.00109577 1e-05
-0.000474853 0.00109779 1e-05
-0.000316572 0.00109991 1e-05
-0.000158293 0.00110214 1e-05
1.35525e-20 0.00110448 1e-05
0.000105677 0.00110613 1e-05
0.000211353 0.00110787 1e-05
0.000317028 0.0011097 1e-05
0.0004227 0.00111163 1e-05
0.000528387 0.00111366 1e-05
0.000634886 0.0011158 1e-05
0.000741383 0.00111808 1e-05
0.000847876 0.00112049 1e-05
0.000954366 0.00112303 1e-05
0.00106088 0.00112571 1e-05
0.00116821 0.00112851 1e-05
0.00127553 0.00113148 1e-05
0.00138285 0.0011346 1e-05
0.00149017 0.00113785 1e-05
0.00159752 0.00114125 1e-05
0.00170568 0.0011448 1e-05
0.00181384 0.0011485 1e-05
0.00192199 0.00115235 1e-05
0.00203013 0.00115635 1e-05
0.00213833 0.00116048 1e-05
0.00224733 0.00116474 1e-05
0.00235632 0.00116916 1e-05
0.00246532 0.00117372 1e-05
0.0025743 0.0011784 1e-05
0.00268334 0.00118319 1e-05
0.00279319 0.00118809 1e-05
0.00290303 0.00119312 1e-05
0.00301287 0.00119827 1e-05
0.0031227 0.00120352 1e-05
0.00323259 0.00120883 1e-05
0.00334329 0.00121422 1e-05
0.00345399 0.00121971 1e-05
0.00356469 0.00122528 1e-05
0.00367538 0.00123091 1e-05
0.00378611 0.00123656 1e-05
0.00389767 0.00124224 1e-05
0.00400923 0.00124798 1e-05
0.00412079 0.00125376 1e-05
0.00423235 0.00125955 1e-05
0.00434393 0.0012653 1e-05
0.00445636 0.00127105 1e-05
0.00456879 0.00127679 1e-05
0.00468123 0.00128254 1e-05
0.00479366 0.00128823 1e-05
0.00490609 0.00129384 1e-05
0.0050194 0.00129939 1e-05
0.00513271 0.00130489 1e-05
0.00524602 0.00131033 1e-05
0.00535933 0.00131567 1e-05
0.00547262 0.00132087 1e-05
0.00558681 0.00132596 1e-05
0.005701 0.00133094 1e-05
0.0058152 0.0013358 1e-05
0.0059294 0.0013405 1e-05
0.00604356 0.00134502 1e-05
0.00615863 0.00134937 1e-05
0.00627371 0.00135355 1e-05
0.0063888 0.00135755 1e-05
0.0065039 0.00136134 1e-05
0.00661893 0.00136489 1e-05
0.0067349 0.00136822 1e-05
0.00685088 0.00137132 1e-05
0.00696686 0.00137417 1e-05
0.00708285 0.00137676 1e-05
0.00719878 0.00137906 1e-05
0.00731565 0.00138109 1e-05
0.00743253 0.00138282 1e-05
0.00754941 0.00138425 1e-05
0.00766629 0.00138537 1e-05
0.00778313 0.00138615 1e-05
0.00790091 0.00138662 1e-05
0.00801869 0.00138672 1e-05
0.00813648 0.00138647 1e-05
0.00825425 0.00138587 1e-05
0.00837203 0.0013849 1e-05
0.00849073 0.00138355 1e-05
0.00860942 0.00138179 1e-05
0.0087281 0.00137964 1e-05
0.00884678 0.00137709 1e-05
0.00896551 0.00137414 1e-05
0.00908513 0.00137076 1e-05
0.00920473 0.00136694 1e-05
0.00932432 0.00136268 1e-05
0.0094439 0.00135799 1e-05
0.0095636 0.00135287 1e-05
0.00968415 0.00134727 1e-05
0.00980468 0.00134121 1e-05
0.00992518 0.00133467 1e-05
0.0100457 0.00132768 1e-05
0.0101663 0.00132022 1e-05
0.0102878 0.00131225 1e-05
0.0104093 0.00130379 1e-05
0.0105307 0.00129484 1e-05
0.0106521 0.00128541 1e-05
0.0107738 0.00127547 1e-05
0.0108962 0.001265 1e-05
0.0110186 0.00125403 1e-05
0.0111409 0.00124256 1e-05
0.0112632 0.00123059 1e-05
0.0113859 0.00121807 1e-05
0.0115093 0.001205 1e-05
0.0116326 0.00119143 1e-05
0.0117559 0.00117735 1e-05
0.0118791 0.00116278 1e-05
0.0120028 0.00114763 1e-05
0.012019 0.00114558 1e-05
0.0120353 0.00114352 1e-05
0.0120515 0.00114145 1e-05
0.0120677 0.00113937 1e-05
0.0120833 0.00113737 1e-05
0.0121915 0.00112338 1e-05
0.0122997 0.00110901 1e-05
0.0124079 0.00109426 1e-05
0.012516 0.00107913 1e-05
0.0126245 0.00106353 1e-05
0.0127498 0.00104508 1e-05
0.0128751 0.0010261 1e-05
0.0130002 0.00100661 1e-05
0.0131253 0.000986615 1e-05
0.0132511 0.000966006 1e-05
0.0133774 0.000944802 1e-05
0.0135036 0.000923083 1e-05
0.0136297 0.000900843 1e-05
0.0137557 0.000878096 1e-05
0.0138825 0.000854709 1e-05
0.014006 0.000831432 1e-05
0.0141295 0.000807687 1e-05
0.0142529 0.000783484 1e-05
0.0143762 0.000758823 1e-05
0.0144773 0.000738201 1e-05
0.0144856 0.000736479 1e-05
0.0144939 0.000734755 1e-05
0.0145022 0.000733029 1e-05
0.0145105 0.000731301 1e-05
0.0145188 0.000729569 1e-05
0.0146471 0.000702815 1e-05
0.0147752 0.000675563 1e-05
0.0149033 0.000647814 1e-05
0.0150312 0.000619561 1e-05
0.0151601 0.000590573 1e-05
0.0152893 0.000560988 1e-05
0.0154185 0.000530897 1e-05
0.0155475 0.000500292 1e-05
0.0156764 0.000469198 1e-05
0.0158063 0.000437343 1e-05
0.0158698 0.000421536 1e-05
0.0159332 0.000405611 1e-05
0.0159966 0.000389571 1e-05
0.01606 0.000373421 1e-05
0.0161189 0.000358295 1e-05
0.0161867 0.00034079 1e-05
0.0162544 0.000323145 1e-05
0.016322 0.000305358 1e-05
0.0163897 0.000287429 1e-05
0.0164576 0.00026926 1e-05
0.0165889 0.00023387 1e-05
0.01672 0.000197976 1e-05
0.016851 0.000161569 1e-05
0.0169818 0.000124652 1e-05
0.0171139 8.6826e-05 1e-05
0.0171737 6.94608e-05 1e-05
0.0172334 5.19922e-05 1e-05
0.0172931 3.44203e-05 1e-05
0.0173527 1.6747e-05 1e-05
0.0174089 0 1e-05
0.0174822 -2.19842e-05 1e-05
0.0175555 -4.41202e-05 1e-05
0.0176287 -6.64096e-05 1e-05
0.0177018 -8.8854e-05 1e-05
0.0177754 -0.000111599 1e-05
0.0179087 -0.000153132 1e-05
0.0180419 -0.000195133 1e-05
0.0181749 -0.000237613 1e-05
0.0183078 -0.000280585 1e-05
0.018442 -0.000324566 1e-05
0.0185061 -0.000345847 1e-05
0.0185701 -0.000367235 1e-05
0.0186341 -0.000388733 1e-05
0.0186981 -0.000410342 1e-05
0.0187588 -0.000430959 1e-05
0.0188298 -0.000455212 1e-05
0.0189007 -0.000479606 1e-05
0.0189716 -0.000504142 1e-05
0.0190425 -0.000528822 1e-05
0.0191137 -0.000553817 1e-05
0.0192491 -0.000601599 1e-05
0.0193844 -0.000649862 1e-05
0.0195194 -0.000698616 1e-05
0.0196543 -0.000747866 1e-05
0.0197907 -0.000798276 1e-05
0.0198455 -0.000818748 1e-05
0.0199002 -0.000839299 1e-05
0.0199549 -0.00085993 1e-05
0.0200095 -0.00088064 1e-05
0.020062 -0.00090062 1e-05
0.0201442 -0.000932034 1e-05
0.0202264 -0.000963629 1e-05
0.0203084 -0.000995408 1e-05
0.0203904 -0.00102737 1e-05
0.020473 -0.0010598 1e-05
0.0206105 -0.00111413 1e-05
0.0207478 -0.00116894 1e-05
0.0208849 -0.00122425 1e-05
0.0210219 -0.00128005 1e-05
0.0211606 -0.00133716 1e-05
0.0211961 -0.00135196 1e-05
0.0212316 -0.00136679 1e-05
0.0212671 -0.00138165 1e-05
0.0213026 -0.00139655 1e-05
0.0213373 -0.00141114 1e-05
0.0214405 -0.00145468 1e-05
0.0215436 -0.00149849 1e-05
0.0216466 -0.00154258 1e-05
0.0217495 -0.00158695 1e-05
0.0218535 -0.0016321 1e-05
0.0219931 -0.00169322 1e-05
0.0221326 -0.00175483 1e-05
0.0222718 -0.00181694 1e-05
0.0224108 -0.00187953 1e-05
0.0225517 -0.00194361 1e-05
0.0225611 -0.00194789 1e-05
0.0225704 -0.00195217 1e-05
0.0225797 -0.00195646 1e-05
0.022589 -0.00196074 1e-05
0.0225983 -0.001965 1e-05
0.0227297 -0.00202555 1e-05
0.022861 -0.00208651 1e-05
0.022992 -0.00214789 1e-05
0.0231228 -0.00220971 1e-05
0.0232555 -0.0022729 1e-05
0.0233771 -0.00233134 1e-05
0.0234986 -0.00239015 1e-05
0.0236199 -0.00244934 1e-05
0.023741 -0.00250888 1e-05
0.0238543 -0.00256501 1e-05
0.0238764 -0.00257603 1e-05
0.0238984 -0.00258705 1e-05
0.0239205 -0.00259809 1e-05
0.0239426 -0.00260914 1e-05
0.0239647 -0.00262023 1e-05
0.0241076 -0.00269202 1e-05
0.0242503 -0.00276428 1e-05
0.0243928 -0.00283703 1e-05
0.024535 -0.00291028 1e-05
0.0246794 -0.00298527 1e-05
0.0247668 -0.00303107 1e-05
0.0248542 -0.00307706 1e-05
0.0249415 -0.00312325 1e-05
0.0250286 -0.00316961 1e-05
0.0251121 -0.00321422 1e-05
0.0251696 -0.00324511 1e-05
0.0252271 -0.00327608 1e-05
0.0252845 -0.00330712 1e-05
0.0253419 -0.00333824 1e-05
0.0253996 -0.00336965 1e-05
0.0255448 -0.00344884 1e-05
0.0256897 -0.0035285 1e-05
0.0258344 -0.00360866 1e-05
0.0259787 -0.00368929 1e-05
[...]
POINT_DATA 12035
 FIELD attributes 1
U 3 12035 float
9.99907 	0.00344272 	0 9.9986 	0.00880419 	0 9.9988 	0.0127357 	0 9.99901 	0.0166569 	0 9.99923 	0.020568 	0 10.0021 	0.0415335 	0 10.0022 	0.0150868 	0 10.0047 	0.0143698 	0 10.0072 	0.0136497 	0 10.0096 	0.0129264 	0 10.0125 	0.0326851 	0 10.0146 	0.00971464 	0 10.0166 	0.0103605 	0 10.0186 	0.0110108 	0 10.0207 	0.0116655 	0 10.0203 	0.0307242 	0 10.0229 	0.0142826 	0 10.0235 	0.0161317 	0 10.0242 	0.0179929 	0 10.0249 	0.0198662 	0 10.0217 	0.0358472 	0 10.0251 	0.0242271 	0 10.0251 	0.0260667 	0 10.0251 	0.027917 	0 10.025 	0.0297779 	0 10.02 	0.0416763 	0 10.0239 	0.0338847 	0 10.0233 	0.0354454 	0 10.0226 	0.0370137 	0 10.022 	0.0385897 	0 10.016 	0.0468028 	0 10.0196 	0.0420738 	0 10.0184 	0.0433997 	0 10.0171 	0.0447311 	0 10.0159 	0.0460679 	0 10.0098 	0.0513671 	0 10.0125 	0.0489464 	0 10.0107 	0.050087 	0 10.009 	0.0512316 	0 10.0072 	0.05238 	0 10.0019 	0.0555087 	0 10.0029 	0.0547377 	0 10.0007 	0.0557295 	0 9.99846 	0.0567241 	0 9.99624 	0.0577215 	0 9.99249 	0.0593075 	0 9.99233 	0.059303 	0 9.99076 	0.0598183 	0 9.98919 	0.0603343 	0 9.98762 	0.060851 	0 9.98613 	0.0613418 	0 9.98503 	0.0617007 	0 9.98392 	0.0620599 	0 9.98282 	0.0624194 	0 9.98172 	0.0627792 	0 9.98045 	0.0629589 	0 9.97762 	0.0638633 	0 9.97455 	0.064625 	0 9.97148 	0.0653882 	0 9.96842 	0.0661526 	0 9.96471 	0.0664012 	0 9.96219 	0.0674913 	0 9.95873 	0.0681628 	0 9.95528 	0.0688353 	0 9.95183 	0.0695088 	0 9.94709 	0.0694431 	0 9.94503 	0.0706589 	0 9.94117 	0.0712659 	0 9.93732 	0.0718737 	0 9.93347 	0.0724823 	0 9.92749 	0.0722431 	0 9.92593 	0.073609 	0 9.92152 	0.0742686 	0 9.91712 	0.074929 	0 9.91273 	0.0755902 	0 9.90514 	0.075463 	0 9.90385 	0.0772173 	0 9.89848 	0.0783021 	0 9.89312 	0.079388 	0 9.88776 	0.0804751 	0 9.87784 	0.081109 	0 9.87618 	0.083886 	0 9.86911 	0.0861947 	0 9.86204 	0.0885057 	0 9.85499 	0.090819 	0 9.84183 	0.0933055 	0 9.83873 	0.0980973 	0 9.82868 	0.10265 	0 9.81866 	0.107207 	0 9.80866 	0.11177 	0 9.79105 	0.117102 	0 9.78629 	0.124458 	0 9.77437 	0.131068 	0 9.7625 	0.137688 	0 9.75066 	0.144318 	0 9.7315 	0.151381 	0 9.72856 	0.1603 	6.62144e-22 9.71671 	0.168809 	3.54163e-21 9.7049 	0.177329 	6.4178e-21 9.69312 	0.185858 	9.29063e-21 9.67371 	0.194594 	1.29376e-20 9.67129 	0.207109 	2.92708e-20 9.65915 	0.218609 	2.95819e-20 9.64707 	0.230124 	2.99201e-20 9.63504 	0.241656 	3.02854e-20 9.61548 	0.251666 	1.10817e-20 9.61628 	0.265957 	9.32249e-21 9.60505 	0.278519 	1.12877e-20 9.59389 	0.291099 	1.32393e-20 9.5827 	0.303667 	1.51962e-20 9.56252 	0.313236 	1.90744e-20 9.56717 	0.327909 	3.71989e-20 9.55805 	0.340317 	3.88919e-20 9.54793 	0.352566 	3.93319e-20 9.53617 	0.364158 	3.69432e-20 9.51591 	0.372417 	2.03571e-20 9.52458 	0.386167 	1.42471e-20 9.52023 	0.397645 	7.17408e-21 9.51137 	0.408336 	-2.39188e-22 9.49819 	0.417301 	-7.10419e-21 9.47728 	0.423193 	-1.29961e-20 9.49092 	0.434953 	-7.24218e-21 9.49386 	0.444834 	-2.68669e-21 9.48649 	0.452907 	7.15636e-22 9.47042 	0.457797 	-1.16657e-21 9.44816 	0.460428 	-6.80609e-21 9.4674 	0.469343 	-2.38813e-20 9.48062 	0.477241 	-3.69303e-20 9.47503 	0.481978 	-3.7474e-20 9.45411 	0.481791 	-2.01007e-20 9.43007 	0.480604 	9.16831e-22 9.45516 	0.486043 	-3.92754e-20 9.48029 	0.491483 	-7.94693e-20 9.47617 	0.49212 	-8.22876e-20 9.45046 	0.486886 	-3.94145e-20 9.42471 	0.481652 	3.46322e-21 9.45554 	0.483114 	1.78429e-21 9.48637 	0.484577 	1.05286e-22 9.48717 	0.480894 	1.1884e-21 9.46037 	0.471615 	4.58313e-21 9.43349 	0.462337 	7.9742e-21 9.46955 	0.459378 	4.92402e-21 9.50556 	0.456418 	1.87165e-21 9.5109 	0.448188 	-7.63064e-23 9.48392 	0.434989 	-9.96304e-22 9.4568 	0.421795 	-1.92199e-21 9.49717 	0.413996 	-9.02441e-22 9.53742 	0.406198 	1.12357e-22 9.54611 	0.393246 	-3.15146e-22 9.51984 	0.376276 	-2.46887e-22 9.49339 	0.35932 	-1.80355e-22 9.5368 	0.346298 	6.43422e-22 9.5795 	0.333206 	1.43193e-21 9.58857 	0.315444 	1.20849e-22 9.56546 	0.294971 	2.43112e-22 9.54036 	0.274372 	4.51163e-22 9.58527 	0.255832 	-4.9605e-22 9.62458 	0.236764 	-9.435e-22 9.63419 	0.214748 	1.32345e-21 9.61694 	0.190989 	2.39078e-21 9.59356 	0.166875 	3.1889e-21 9.63828 	0.142788 	2.4355e-21 9.67486 	0.118284 	1.81203e-21 9.68394 	0.0922871 	1.65454e-21 9.66903 	0.0652179 	2.15709e-21 9.64677 	0.037857 	2.85127e-21 9.68828 	0.00869524 	7.85746e-22 9.72249 	-0.0205237 	-1.12857e-21 9.72991 	-0.0500348 	-2.44943e-21 9.71426 	-0.0801521 	-1.65407e-21 9.69307 	-0.110388 	-3.73159e-22 9.72929 	-0.143841 	-2.83527e-22 9.76247 	-0.17718 	-2.3303e-22 9.76732 	-0.209614 	-6.01662e-22 9.74804 	-0.242259 	-1.46336e-21 9.72726 	-0.274909 	-2.34832e-21 9.75679 	-0.311751 	-8.76131e-21 9.78594 	-0.348563 	-1.51724e-20 9.78742 	-0.383514 	-1.51731e-20 9.76658 	-0.417952 	-8.72959e-21 9.74541 	-0.452414 	-2.27795e-21 9.76713 	-0.491583 	-1.3642e-21 9.7885 	-0.53073 	-4.49393e-22 9.78856 	-0.568176 	0 9.76648 	-0.603675 	0 9.74407 	-0.639238 	0 9.75727 	-0.679571 	0 9.77016 	-0.719893 	0 9.76657 	-0.759354 	-1.36922e-21 9.74464 	-0.795523 	-2.91955e-21 9.72022 	-0.8314 	-4.49826e-21 9.72464 	-0.871719 	-1.08731e-20 9.72133 	-0.911441 	-1.35125e-20 9.71105 	-0.950628 	-1.27977e-20 9.69832 	-0.989292 	-1.1452e-20 9.67126 	-1.02467 	-6.11306e-21 9.66501 	-1.06364 	-4.02037e-21 9.64845 	-1.10148 	-2.96685e-21 9.6316 	-1.13933 	-1.92091e-21 9.61446 	-1.1772 	-8.82587e-22 9.59509 	-1.21467 	-1.08581e-22 9.59319 	-1.21947 	-4.35785e-23 9.59022 	-1.22411 	-2.45167e-22 9.58725 	-1.22874 	-4.46864e-22 9.58428 	-1.23338 	-6.48671e-22 9.58142 	-1.23784 	-8.42982e-22 9.56193 	-1.26959 	-1.74284e-21 9.54226 	-1.30138 	-2.63617e-21 9.52241 	-1.33322 	-3.52291e-21 9.50238 	-1.3651 	-4.40303e-21 9.47242 	-1.39482 	-3.44888e-21 9.4549 	-1.43342 	5.28005e-21 9.42901 	-1.46845 	9.40322e-21 9.40043 	-1.50245 	1.21683e-20 9.36389 	-1.53429 	7.69841e-21 9.324 	-1.56556 	5.21678e-22 9.29793 	-1.6003 	7.57699e-22 9.27159 	-1.6351 	1.01441e-21 9.23804 	-1.66761 	0 9.19505 	-1.69572 	0 9.15154 	-1.72411 	0 9.11935 	-1.75394 	0 9.08077 	-1.78142 	0 9.04094 	-1.80857 	0 9.00086 	-1.83578 	0 8.96776 	-1.85817 	0 8.96504 	-1.86016 	0 8.96232 	-1.86215 	0 8.9596 	-1.86414 	0 8.95673 	-1.86604 	0 8.95353 	-1.86777 	0 8.90907 	-1.89455 	0 8.86366 	-1.92091 	0 8.818 	-1.9474 	0 8.76979 	-1.97239 	0 8.71769 	-1.99541 	0 8.67069 	-2.02049 	0 8.6234 	-2.04567 	0 8.57269 	-2.06803 	3.38554e-23 8.51952 	-2.08828 	-6.24922e-23 8.46509 	-2.1083 	-2.0464e-22 8.44012 	-2.1188 	-1.21059e-21 8.41446 	-2.12848 	-1.42274e-21 8.38818 	-2.13741 	-8.90516e-22 8.36183 	-2.14637 	-3.54666e-22 8.33726 	-2.15472 	1.47172e-22 8.30829 	-2.16561 	8.01909e-22 8.27924 	-2.17654 	1.46184e-21 8.25011 	-2.18751 	2.127e-21 8.21925 	-2.19762 	1.68034e-21 8.18712 	-2.20727 	5.38026e-22 8.13102 	-2.22568 	3.21908e-22 8.0746 	-2.24422 	1.08371e-22 8.01545 	-2.26146 	-1.41268e-22 7.95354 	-2.27738 	-4.26182e-22 7.89064 	-2.29361 	-7.13445e-22 7.8641 	-2.30066 	-1.02853e-21 7.83722 	-2.30752 	-1.20991e-21 7.80953 	-2.31382 	-1.02182e-21 7.78177 	-2.32013 	-8.3264e-22 7.75556 	-2.32611 	-6.53375e-22 7.7233 	-2.33389 	-5.86399e-22 7.69096 	-2.34171 	-5.18958e-22 7.65853 	-2.34957 	-4.51049e-22 7.62423 	-2.35694 	-4.45751e-22 7.58837 	-2.36402 	-4.83999e-22 7.53164 	-2.37547 	-2.90007e-22 7.47463 	-2.38702 	-9.54418e-23 7.4144 	-2.39811 	5.24363e-23 7.35087 	-2.40874 	1.55391e-22 7.28632 	-2.41961 	2.59854e-22 7.25871 	-2.42407 	2.43996e-22 7.23057 	-2.42843 	2.76508e-22 7.20126 	-2.4325 	4.20035e-22 7.1719 	-2.4366 	5.63894e-22 7.14396 	-2.44051 	7.0075e-22 7.11176 	-2.44527 	8.49602e-22 7.07947 	-2.45005 	9.98804e-22 7.04711 	-2.45487 	1.14836e-21 7.01357 	-2.45906 	1.04532e-21 6.97913 	-2.46295 	8.06296e-22 6.92012 	-2.4698 	1.68995e-21 6.8608 	-2.47676 	2.57118e-21 6.79961 	-2.483 	2.67101e-21 6.73632 	-2.4888 	1.99806e-21 6.6719 	-2.49478 	1.31522e-21 6.64809 	-2.49694 	2.75864e-21 6.62408 	-2.49899 	3.70506e-21 6.59957 	-2.50067 	3.14277e-21 6.575 	-2.50237 	2.57734e-21 6.55135 	-2.50401 	2.03088e-21 6.51488 	-2.50654 	1.15347e-21 6.47831 	-2.50911 	2.68762e-22 6.44162 	-2.51171 	-6.23341e-22 6.40408 	-2.51352 	5.49457e-22 6.36578 	-2.51503 	2.621e-21 6.30736 	-2.5177 	1.21646e-21 6.24865 	-2.52046 	-1.89779e-22 6.18877 	-2.52208 	-7.44526e-22 6.12774 	-2.52356 	-9.00394e-22 6.06513 	-2.52525 	-9.73363e-22 6.05017 	-2.52571 	5.89138e-22 6.03516 	-2.5261 	1.4486e-21 6.01999 	-2.52623 	-4.81386e-22 6.00481 	-2.52636 	-2.41408e-21 5.98994 	-2.52649 	-4.30562e-21 5.94656 	-2.5266 	-9.66673e-21 5.90302 	-2.52675 	-1.50486e-20 5.85931 	-2.52695 	-2.04517e-20 5.81506 	-2.5262 	-1.5989e-20 5.77001 	-2.52513 	-7.89322e-21 5.71365 	-2.52441 	-1.93364e-20 5.65698 	-2.52367 	-2.91348e-20 5.59974 	-2.52158 	-1.67322e-20 5.54221 	-2.51957 	-4.25297e-21 5.48309 	-2.5177 	1.11255e-20 5.47937 	-2.51763 	1.12623e-20 5.47565 	-2.51754 	1.13588e-20 5.47193 	-2.51738 	1.12482e-20 5.46821 	-2.51723 	1.11376e-20 5.46451 	-2.51707 	1.10277e-20 5.41332 	-2.51432 	1.71219e-20 5.3619 	-2.51162 	2.32814e-20 5.31023 	-2.50898 	2.95077e-20 5.25837 	-2.5052 	1.72276e-20 5.2055 	-2.50103 	-1.10555e-21 5.15965 	-2.49826 	-2.00451e-20 5.11365 	-2.49531 	-3.40037e-20 5.06766 	-2.49137 	-2.72454e-20 5.02146 	-2.48748 	-2.04237e-20 4.97798 	-2.48387 	-1.39707e-20 4.96972 	-2.48309 	-1.22333e-20 4.96146 	-2.4823 	-1.04933e-20 4.95319 	-2.48152 	-8.75059e-21 4.94497 	-2.48051 	-1.01242e-20 4.93672 	-2.47944 	-1.24434e-20 4.88645 	-2.47429 	1.59695e-20 4.83506 	-2.46917 	3.44823e-20 4.78345 	-2.464 	5.06656e-20 4.73209 	-2.45733 	2.81209e-20 4.6796 	-2.4506 	5.25838e-21 4.64916 	-2.44753 	2.58455e-20 4.61868 	-2.44433 	4.17545e-20 4.58847 	-2.44039 	3.42256e-20 4.55817 	-2.43647 	2.6664e-20 4.52902 	-2.43273 	1.93839e-20 4.5096 	-2.42994 	1.13018e-20 4.49013 	-2.42716 	3.19821e-21 4.47063 	-2.42439 	-4.92707e-21 4.45131 	-2.42105 	7.82864e-21 4.43188 	-2.41753 	2.6577e-20 4.38527 	-2.41086 	1.18462e-19 4.3384 	-2.40423 	2.10205e-19 4.29136 	-2.39671 	2.07274e-19 4.24402 	-2.38832 	1.09463e-19 4.19557 	-2.37981 	9.96899e-21 4.17936 	-2.37757 	1.57521e-20 4.16316 	-2.37524 	1.84169e-20 4.14721 	-2.37246 	2.76149e-21 4.13122 	-2.36969 	-1.29138e-20 4.11555 	-2.36698 	-2.8262e-20 4.08648 	-2.36147 	-8.70267e-20 4.05732 	-2.35597 	-1.45966e-19 4.02806 	-2.35048 	-2.05083e-19 3.99909 	-2.34407 	-1.33486e-19 3.96979 	-2.33733 	-2.54641e-20 3.92677 	-2.32945 	7.50054e-20 3.8835 	-2.32159 	1.75392e-19 3.8408 	-2.31209 	1.40954e-19 3.79789 	-2.30259 	1.04816e-19 3.75344 	-2.29276 	4.78122e-20 3.7497 	-2.2921 	4.82182e-20 3.74597 	-2.29141 	4.87442e-20 3.74229 	-2.29061 	5.00734e-20 3.73862 	-2.28981 	5.14031e-20 3.73496 	-2.28901 	5.27265e-20 3.69795 	-2.2803 	4.28972e-20 3.66077 	-2.2716 	3.30118e-20 3.62343 	-2.26291 	2.3069e-20 3.58213 	-2.25266 	5.46291e-20 3.53889 	-2.24182 	9.7928e-20 3.5069 	-2.23446 	2.38247e-19 3.47404 	-2.22682 	3.4321e-19 3.43747 	-2.21773 	2.72031e-19 3.40072 	-2.20865 	2.00512e-19 3.36542 	-2.19998 	1.31828e-19 3.35916 	-2.19811 	1.27966e-19 3.35291 	-2.19624 	1.24102e-19 3.34665 	-2.19438 	1.20235e-19 3.34076 	-2.19225 	1.18e-19 3.33522 	-2.18986 	1.17357e-19 3.29998 	-2.18017 	8.34139e-20 3.26464 	-2.16974 	4.39473e-20 3.22914 	-2.15932 	4.48962e-21 3.19665 	-2.14677 	-6.23252e-21 3.16436 	-2.1334 	-8.91933e-21 3.12903 	-2.12421 	9.61301e-20 3.09484 	-2.11416 	1.49814e-19 3.06307 	-2.10241 	1.02886e-19 3.03118 	-2.09065 	5.58029e-20 2.99856 	-2.07845 	-6.95427e-21 2.99671 	-2.07797 	-5.54001e-21 2.99494 	-2.07745 	-4.68295e-21 2.99329 	-2.07685 	-4.65612e-21 2.99163 	-2.07625 	-4.62931e-21 2.98998 	-2.07565 	-4.60257e-21 2.95991 	-2.0646 	-3.24874e-21 2.92973 	-2.05356 	-1.8949e-21 2.89941 	-2.04251 	-5.41059e-22 2.87114 	-2.03038 	-4.25071e-22 2.84378 	-2.01732 	-1.14421e-21 2.81176 	-2.00666 	-8.82874e-22 2.78013 	-1.99573 	-4.24417e-21 2.75148 	-1.98324 	-2.79463e-20 2.72272 	-1.97075 	-5.16494e-20 2.69344 	-1.9576 	-7.5934e-20 2.68971 	-1.95637 	-7.50031e-20 2.6861 	-1.95509 	-7.41149e-20 2.68278 	-1.95367 	-7.33126e-20 2.67945 	-1.95224 	-7.2511e-20 2.67614 	-1.95083 	-7.17136e-20 2.65077 	-1.93987 	-5.05849e-20 2.62532 	-1.9289 	-2.94551e-20 2.59977 	-1.91794 	-8.32395e-21 2.57622 	-1.90608 	-1.70733e-20 2.5533 	-1.89363 	-4.05035e-20 2.5243 	-1.88208 	-1.6783e-19 2.4958 	-1.87025 	-2.61525e-19 2.46994 	-1.85725 	-2.07954e-19 2.44399 	-1.84424 	-1.54261e-19 2.41758 	-1.83083 	-8.28644e-20 2.41604 	-1.83022 	-8.23612e-20 2.41454 	-1.8296 	-8.15108e-20 2.41317 	-1.82892 	-7.96755e-20 2.41181 	-1.82825 	-7.78403e-20 2.41044 	-1.82757 	-7.60085e-20 2.38598 	-1.81535 	-4.35466e-20 2.36143 	-1.80312 	-1.11271e-20 2.33681 	-1.79089 	2.1249e-20 2.31438 	-1.77778 	-8.37757e-21 2.29242 	-1.76418 	-6.03724e-20 2.26898 	-1.75327 	-2.0888e-19 2.24612 	-1.7421 	-3.07975e-19 2.22538 	-1.73008 	-2.42924e-19 2.20458 	-1.71805 	-1.77817e-19 2.18419 	-1.70629 	-1.14097e-19 2.18162 	-1.70479 	-1.0815e-19 2.17904 	-1.7033 	-1.02202e-19 2.17647 	-1.7018 	-9.62541e-20 2.17417 	-1.70021 	-9.55658e-20 2.17195 	-1.69859 	-9.63052e-20 2.14875 	-1.68564 	-2.15751e-19 2.12567 	-1.67233 	-2.81951e-19 2.10251 	-1.65902 	-3.48329e-19 2.08243 	-1.64461 	-1.92237e-19 2.06212 	-1.63004 	-3.32198e-20 2.04694 	-1.62178 	-2.90456e-20 2.03208 	-1.61338 	-2.51418e-20 2.01886 	-1.6044 	-2.24383e-20 2.00563 	-1.59542 	-1.97393e-20 1.99254 	-1.58654 	-1.7076e-20 1.98548 	-1.58171 	-1.16895e-20 1.97841 	-1.57688 	-6.30302e-21 1.97134 	-1.57205 	-9.16582e-22 1.96522 	-1.56692 	0 1.95928 	-1.56172 	0 1.93905 	-1.54856 	0 1.91878 	-1.5354 	0 1.90021 	-1.52149 	5.00639e-21 1.88347 	-1.50685 	1.33711e-20 1.86667 	-1.49214 	2.17974e-20 1.85944 	-1.48744 	8.11776e-20 1.85238 	-1.48269 	1.2553e-19 1.84633 	-1.47763 	8.11842e-20 1.84029 	-1.47257 	3.6843e-20 1.83426 	-1.46751 	-7.37591e-21 1.82368 	-1.45856 	-8.79731e-20 1.81311 	-1.44961 	-1.68553e-19 1.80254 	-1.44066 	-2.49117e-19 1.79401 	-1.43116 	-1.79105e-19 1.78585 	-1.42158 	-8.39698e-20 1.76936 	-1.40823 	-6.42374e-20 1.75304 	-1.39483 	-4.56634e-20 1.7403 	-1.38046 	-5.24107e-20 1.72763 	-1.36609 	-5.90616e-20 1.71523 	-1.35163 	-7.21391e-20 1.71439 	-1.35094 	-7.18161e-20 1.71358 	-1.35024 	-7.1834e-20 1.71294 	-1.34949 	-7.39372e-20 1.71229 	-1.34874 	-7.60403e-20 1.71165 	-1.34799 	-7.81444e-20 1.70035 	-1.33462 	-6.67873e-20 1.68911 	-1.32126 	-5.54983e-20 1.67793 	-1.30792 	-4.42792e-20 1.67043 	-1.2937 	-5.24049e-20 1.66373 	-1.27955 	-6.36629e-20 1.65494 	-1.26943 	-2.91026e-20 1.64673 	-1.25919 	0 1.64142 	-1.24825 	0 1.63619 	-1.23733 	0 1.63091 	-1.22617 	0 1.62939 	-1.22286 	0 1.62788 	-1.21955 	0 1.62637 	-1.21624 	0 1.62584 	-1.21271 	0 1.62554 	-1.20915 	0 1.61895 	-1.19567 	0 1.61284 	-1.182 	3.33711e-21 1.6085 	-1.16783 	1.04611e-20 1.60822 	-1.15278 	1.73126e-20 1.60815 	-1.13823 	2.41126e-20 1.60521 	-1.13097 	8.40417e-20 1.60298 	-1.12356 	1.20537e-19 1.60297 	-1.11565 	7.99788e-20 1.60303 	-1.10777 	3.96151e-20 1.60315 	-1.09961 	-2.07685e-21 1.60332 	-1.09369 	-3.26662e-20 1.60352 	-1.08778 	-6.31393e-20 1.60376 	-1.08189 	-9.34955e-20 1.6056 	-1.07564 	-5.89383e-20 1.60803 	-1.06939 	-1.29564e-21 1.6085 	-1.05651 	-8.10861e-22 1.60912 	-1.04372 	-3.30985e-22 1.61271 	-1.0301 	0 1.61951 	-1.01576 	0 1.62625 	-1.0021 	0 1.62732 	-0.995316 	0 1.6294 	-0.988323 	-1.06472e-20 1.63322 	-0.980958 	-3.93986e-20 1.63709 	-0.973627 	-6.81335e-20 1.64127 	-0.965866 	-9.86787e-20 1.64432 	-0.960383 	-1.06674e-19 1.6474 	-0.95492 	-1.14736e-19 1.65052 	-0.949477 	-1.22867e-19 1.65452 	-0.943819 	-1.24652e-19 1.65909 	-0.938123 	-1.21871e-19 1.66641 	-0.926272 	-2.21447e-19 1.67403 	-0.914399 	-3.04642e-19 1.68293 	-0.902029 	-2.915e-19 1.69452 	-0.889057 	-1.19099e-19 1.70581 	-0.876744 	4.63239e-20 1.7135 	-0.866731 	1.98593e-19 1.72278 	-0.85638 	2.53688e-19 1.7334 	-0.845771 	2.28135e-19 1.74414 	-0.835267 	2.02959e-19 1.75659 	-0.823356 	1.74562e-19 1.75726 	-0.822735 	1.7306e-19 1.75793 	-0.822114 	1.7156e-19 1.7586 	-0.821493 	1.70061e-19 1.75928 	-0.82086 	1.70031e-19 1.75999 	-0.820209 	1.72616e-19 1.77226 	-0.809288 	1.99625e-19 1.78459 	-0.798405 	2.1494e-19 1.79706 	-0.787641 	2.29635e-19 1.80982 	-0.776759 	2.1279e-19 1.82249 	-0.766066 	1.563e-19 1.83583 	-0.756346 	2.38592e-19 1.84928 	-0.746741 	3.20883e-19 1.8629 	-0.736833 	3.13931e-19 1.87624 	-0.726462 	2.19447e-19 1.8893 	-0.716498 	1.27181e-19 1.90248 	-0.707995 	1.03516e-19 1.91574 	-0.699238 	7.98053e-20 1.92909 	-0.6905 	5.58837e-20 1.94253 	-0.681858 	3.17084e-20 1.95848 	-0.671773 	2.8869e-21 1.95871 	-0.671631 	2.14803e-21 1.95894 	-0.671489 	1.40918e-21 1.95917 	-0.671347 	6.70364e-22 1.9594 	-0.671205 	-1.84002e-23 1.95959 	-0.67106 	-2.16992e-22 1.97396 	-0.662316 	0 1.98836 	-0.65366 	0 2.00284 	-0.645103 	0 2.01711 	-0.636622 	0 2.02875 	-0.628233 	0 2.04543 	-0.620494 	0 2.06186 	-0.612786 	2.159e-21 2.07624 	-0.604811 	1.70362e-20 2.08814 	-0.596777 	4.16603e-20 2.0999 	-0.588959 	6.59508e-20 2.11687 	-0.581765 	1.82273e-19 2.13375 	-0.57465 	2.89607e-19 2.14792 	-0.567495 	2.48876e-19 2.16072 	-0.560164 	1.41891e-19 2.17254 	-0.55286 	-2.8545e-21 2.18974 	-0.546152 	-2.84446e-21 2.20409 	-0.539423 	-1.3238e-20 2.21838 	-0.532762 	-2.4092e-20 2.23273 	-0.526172 	-3.49156e-20 2.24626 	-0.519607 	-5.00146e-20 2.25035 	-0.518073 	-4.48825e-20 2.25382 	-0.516529 	-4.82486e-20 2.2573 	-0.514989 	-5.16094e-20 2.26078 	-0.513452 	-5.49649e-20 2.26442 	-0.51185 	-5.84673e-20 2.27523 	-0.507127 	-6.08135e-20 2.28607 	-0.50244 	-6.32181e-20 2.29694 	-0.497789 	-6.56804e-20 2.30785 	-0.493174 	-6.81996e-20 2.31552 	-0.488628 	-8.49807e-20 2.3333 	-0.482978 	-5.83433e-20 2.34766 	-0.477092 	-5.19533e-20 2.36208 	-0.471264 	-4.56774e-20 2.37466 	-0.465501 	-4.25499e-20 2.38372 	-0.45985 	-4.51927e-20 2.40216 	-0.454609 	-3.30079e-20 2.42016 	-0.449383 	-1.98234e-20 2.43427 	-0.443912 	6.376e-22 2.44332 	-0.438528 	1.2939e-20 2.45236 	-0.433223 	2.51421e-20 2.47083 	-0.428304 	1.61499e-20 2.48936 	-0.423436 	7.1214e-21 2.50319 	-0.418585 	0 2.51219 	-0.413526 	0 2.52119 	-0.408534 	0 2.53965 	-0.403906 	0 2.55634 	-0.399346 	7.3429e-21 2.56954 	-0.394873 	2.89279e-20 2.58106 	-0.390307 	5.08031e-20 2.58998 	-0.385599 	7.30408e-20 2.6084 	-0.381233 	2.07247e-19 2.62189 	-0.376981 	2.15221e-19 2.63505 	-0.37277 	2.13673e-19 2.64825 	-0.368595 	2.12339e-19 2.65855 	-0.364255 	1.19051e-19 2.67373 	-0.36035 	7.87156e-20 2.6862 	-0.356523 	7.31356e-20 2.6987 	-0.352725 	6.73452e-20 2.71124 	-0.348956 	6.13472e-20 2.7259 	-0.344593 	5.41134e-20 2.72607 	-0.344546 	5.40449e-20 2.72623 	-0.344499 	5.39764e-20 2.72639 	-0.344452 	5.39078e-20 2.72655 	-0.344405 	5.38392e-20 2.72666 	-0.344359 	5.28263e-20 2.73966 	-0.340545 	3.77793e-20 2.75265 	-0.336759 	2.35209e-20 2.76568 	-0.333001 	9.44251e-21 2.77875 	-0.329272 	-4.45819e-21 2.78812 	-0.325655 	1.55128e-20 2.80478 	-0.32221 	-2.68984e-20 2.81765 	-0.318626 	-3.78371e-20 2.83056 	-0.315068 	-4.86159e-20 2.84351 	-0.311535 	-5.92367e-20 2.84938 	-0.308184 	-1.97258e-20 2.8683 	-0.305023 	-1.54153e-19 2.88213 	-0.30167 	-1.93245e-19 2.8949 	-0.298294 	-2.12027e-19 2.90476 	-0.295005 	-1.71742e-19 2.91028 	-0.291838 	-4.48418e-20 2.92909 	-0.288843 	-2.62869e-19 2.94597 	-0.285789 	-4.21917e-19 2.95859 	-0.282581 	-4.52451e-19 2.96531 	-0.279526 	-2.61624e-19 2.97072 	-0.276523 	-2.19563e-20 2.98939 	-0.273679 	-9.6015e-20 3.0081 	-0.270856 	-1.70082e-19 3.02003 	-0.267876 	-1.56294e-19 3.02531 	-0.265005 	-5.05733e-20 3.0306 	-0.262153 	5.50137e-20 3.04912 	-0.259449 	3.31984e-20 3.06767 	-0.256764 	1.1373e-20 3.07953 	-0.254094 	6.43822e-22 3.08467 	-0.251364 	1.13965e-20 3.08983 	-0.248651 	2.21933e-20 3.10818 	-0.246077 	-1.61735e-19 3.12656 	-0.24352 	-3.45611e-19 3.13832 	-0.241134 	-3.49513e-19 3.14332 	-0.238535 	-1.73957e-19 3.14833 	-0.235951 	1.49628e-21 3.1665 	-0.233497 	-1.72575e-20 3.18288 	-0.231102 	-3.14053e-20 3.19402 	-0.228846 	-3.2365e-20 3.20119 	-0.226454 	-5.25447e-20 3.20605 	-0.22399 	-8.38298e-20 3.22402 	-0.221648 	-2.99497e-19 3.23802 	-0.219416 	-3.84818e-19 3.24901 	-0.217268 	-3.71454e-19 3.25822 	-0.215066 	-3.05583e-19 3.26292 	-0