/*--------------------------------*- C++ -*----------------------------------*\
| =========                 |                                                 |
| \\      /  F ield         | OpenFOAM: The Open Source CFD Toolbox           |
|  \\    /   O peration     | Version:  2.2.x                                 |
|   \\  /    A nd           | Web:      www.OpenFOAM.org                      |
|    \\/     M anipulation  |                                                 |
\*---------------------------------------------------------------------------*/
FoamFile
{
    version     2.0;
    format      ascii;
    class       volScalarField;
    location    "700";
    object      epsilon;
}
// * * * * * * * * * * * * * * * * * * * * * * * * * * * * * * * * * * * * * //

dimensions      [0 2 -3 0 0 0 0];

internalField   nonuniform List<scalar> 
12225
(
1739.11
3020.51
4030.08
4714.53
5131.93
5357.72
5455.53
5472.01
5438.97
5377.22
5300
5215.61
5129.15
5043.71
4961.05
4882.09
4806.12
4739.67
187.432
345.311
471.696
572.301
644.888
692.992
722.811
740.093
749.258
753.443
754.768
754.615
753.857
753.038
752.535
752.879
756.335
763.801
41.8453
72.5092
98.5907
120.691
138.682
152.661
163.127
170.72
176.065
179.713
182.124
183.663
184.609
185.176
185.531
185.835
186.279
186.721
20.3598
27.9831
35.4716
42.3255
48.3646
53.524
57.8326
61.368
64.2256
66.5047
68.3004
69.6985
70.7747
71.5935
72.2105
72.6744
73.0227
73.238
16.0562
18.2138
20.6758
23.1517
25.4997
27.6469
29.5646
31.2496
32.7122
33.9694
35.0414
35.9489
36.7124
37.351
37.8818
38.3204
38.6782
38.9531
15.0131
15.5456
16.3131
17.1967
18.1162
19.0202
19.8783
20.6745
21.4015
22.0578
22.6448
23.1662
23.6265
24.0307
24.384
24.6912
24.9559
25.1771
14.7583
14.7814
14.9213
15.1496
15.4364
15.7557
16.0877
16.4187
16.7393
17.0438
17.3288
17.5925
17.8343
18.0546
18.2539
18.4331
18.5929
18.732
14.7063
14.5999
14.5497
14.5524
14.5992
14.6794
14.7826
14.9004
15.0256
15.1534
15.2798
15.4022
15.5189
15.6287
15.7309
15.8252
15.9112
15.9872
14.6923
14.5448
14.4247
14.3339
14.2712
14.2336
14.2169
14.2168
14.2293
14.251
14.2791
14.3111
14.3454
14.3804
14.4151
14.4486
14.4805
14.5091
14.6883
14.5275
14.3816
14.2517
14.1383
14.041
13.9587
13.8899
13.8329
13.786
13.7476
13.7163
13.6906
13.6695
13.652
13.6374
13.6249
13.6136
14.6872
14.5228
14.3691
14.2261
14.0938
13.9722
13.8608
13.7593
13.6669
13.5831
13.5069
13.4378
13.3749
13.3176
13.2653
13.2173
13.1732
13.1327
14.6868
14.5216
14.3659
14.2194
14.0816
13.9521
13.8307
13.717
13.6105
13.5109
13.4178
13.3307
13.2494
13.1733
13.1021
13.0354
12.973
12.9149
14.6866
14.5211
14.365
14.2176
14.0785
13.9471
13.823
13.7057
13.5949
13.4902
13.3913
13.2978
13.2094
13.1259
13.0469
12.9721
12.9014
12.8352
14.6865
14.5209
14.3646
14.217
14.0775
13.9456
13.8209
13.7028
13.5909
13.4849
13.3845
13.2892
13.1988
13.113
13.0316
12.9543
12.8808
12.8118
14.6864
14.5207
14.3643
14.2166
14.077
13.9449
13.82
13.7017
13.5895
13.4832
13.3824
13.2867
13.1958
13.1095
13.0274
12.9494
12.8752
12.8054
14.6863
14.5206
14.3641
14.2163
14.0766
13.9445
13.8194
13.701
13.5887
13.4823
13.3813
13.2855
13.1944
13.1079
13.0257
12.9475
12.8731
12.8031
14.6863
14.5205
14.364
14.2161
14.0764
13.9442
13.8191
13.7005
13.5882
13.4817
13.3806
13.2847
13.1936
13.1069
13.0246
12.9463
12.8718
12.8017
14.6863
14.5205
14.364
14.2161
14.0763
13.9441
13.8189
13.7003
13.588
13.4814
13.3803
13.2843
13.1931
13.1064
13.024
12.9457
12.8711
12.801
14.6863
14.5205
14.364
14.2161
14.0763
13.9441
13.8189
13.7003
13.588
13.4814
13.3803
13.2843
13.1931
13.1064
13.024
12.9456
12.8711
12.801
14.6863
14.5206
14.3641
14.2162
14.0765
13.9443
13.8191
13.7006
13.5883
13.4818
13.3808
13.2849
13.1938
13.1073
13.0251
12.9469
12.8726
12.8027
14.6864
14.5207
14.3642
14.2165
14.0769
13.9449
13.82
13.7019
13.5901
13.4842
13.3839
13.2889
13.1988
13.1134
13.0324
12.9556
12.8827
12.8144
14.6865
14.5209
14.3648
14.2177
14.0791
13.9486
13.8259
13.7104
13.6019
13.4999
13.404
13.314
13.2294
13.15
13.0752
13.005
12.9389
12.8774
14.6868
14.5224
14.369
14.2265
14.095
13.9742
13.8637
13.7628
13.6711
13.5877
13.512
13.4432
13.3806
13.3236
13.2715
13.224
13.1805
13.1411
14.6896
14.5346
14.3997
14.286
14.1933
14.12
14.0639
14.0227
13.9939
13.9753
13.9649
13.9609
13.9619
13.9667
13.9742
13.9837
13.9944
14.0063
14.712
14.6198
14.5883
14.6113
14.6786
14.7791
14.9026
15.0409
15.1873
15.337
15.4862
15.6324
15.7736
15.9087
16.0367
16.1575
16.2706
16.3762
14.8713
15.1221
15.5436
16.0692
16.6493
17.249
17.845
18.4228
18.9737
19.4927
19.9771
20.4263
20.8405
21.2206
21.5683
21.8852
22.1732
22.4342
15.8759
17.7061
19.7886
21.8988
23.9445
25.8788
27.6791
29.3367
30.8504
32.2229
33.4599
34.5691
35.5591
36.439
37.2182
37.9055
38.5093
39.0376
22.1652
31.1005
39.3162
46.8942
53.8924
60.2817
66.0502
71.2046
75.7631
79.7554
83.2202
86.2029
88.7516
90.9147
92.7379
94.2625
95.5217
96.5349
68.0189
114.9
154.783
191.789
226.037
256.865
283.964
307.309
327.061
343.509
357.017
367.976
376.767
383.743
389.214
393.439
396.603
398.711
723.143
1065.45
1375.75
1655.21
1913.04
2142.31
2339.72
2504.91
2639.56
2746.51
2829.16
2891
2935.39
2965.35
2983.57
2992.34
2993.63
2988.93
0.369599
0.322808
0.452278
0.562289
0.685219
0.814436
0.973252
1.19996
1.4828
1.82248
2.21549
2.65911
3.15176
3.69243
4.28045
4.91533
5.59675
6.32455
7.09876
7.91958
8.78745
9.70298
10.667
11.6805
12.7446
13.8609
15.0309
16.2565
17.5396
18.8826
20.2881
21.7591
23.2988
24.9112
26.6009
28.3733
30.235
32.1944
34.2617
36.4502
38.777
41.2644
43.8867
46.6344
49.5118
52.5236
55.6748
58.9701
62.4144
66.0124
69.7689
73.6887
77.7762
82.036
86.4727
91.0905
95.8936
100.886
106.071
111.454
117.036
122.822
128.813
135.014
141.425
148.049
154.887
161.94
169.21
176.695
184.396
192.312
200.441
208.782
217.332
226.087
235.043
244.196
253.541
263.07
272.776
282.651
292.687
302.872
313.194
323.643
334.203
344.859
355.597
366.399
377.247
388.123
399.009
409.888
420.743
431.561
442.335
453.066
463.768
474.477
485.193
495.707
506.003
516.061
525.86
535.38
544.6
553.5
562.058
570.256
578.073
585.492
592.494
599.062
605.181
610.834
616.008
620.692
624.874
628.546
631.701
634.334
636.44
638.019
639.07
639.595
639.599
639.087
638.067
636.548
634.544
632.068
629.135
625.761
621.964
617.763
613.177
608.229
602.942
597.339
591.442
585.274
578.858
572.221
565.389
558.382
551.222
543.934
536.541
529.067
521.529
513.946
506.341
498.736
491.139
483.568
476.049
468.592
461.193
453.888
446.686
439.567
432.578
425.716
418.934
412.323
405.916
399.951
396.158
394.188
392.605
391.247
390.079
389.063
388.143
387.179
386.003
383.866
380.248
367.817
1.14554
0.601948
0.561364
0.629151
0.738165
0.877906
1.04849
1.25246
1.48822
1.7529
2.04366
2.35848
2.69606
3.05556
3.43645
3.8384
4.26126
4.7051
5.17012
5.65672
6.16543
6.69695
7.25207
7.83171
8.4369
9.06874
9.72846
10.4173
11.1368
11.8884
12.6736
13.4943
14.3523
15.2497
16.1886
17.1714
18.2007
19.2792
20.4094
21.5942
22.8357
24.1352
25.492
26.9068
28.381
29.9163
31.5144
33.177
34.9056
36.702
38.5677
40.5042
42.513
44.5955
46.753
48.9869
51.2982
53.6881
56.1575
58.7073
61.3382
64.0508
66.8457
69.7231
72.6832
75.7261
78.8514
82.0589
85.348
88.718
92.1678
95.6962
99.3019
102.983
106.738
110.564
114.46
118.422
122.447
126.532
130.674
134.869
139.113
143.401
147.729
152.092
156.485
160.902
165.339
169.789
174.248
178.709
183.168
187.621
192.063
196.493
200.909
205.312
209.708
214.104
218.516
222.861
227.124
231.295
235.368
239.333
243.183
246.911
250.507
253.965
257.277
260.435
263.433
266.263
268.92
271.397
273.689
275.79
277.697
279.405
280.91
282.211
283.306
284.193
284.871
285.341
285.603
285.659
285.512
285.164
284.62
283.884
282.961
281.857
280.578
279.131
277.524
275.763
273.859
271.818
269.651
267.365
264.969
262.474
259.889
257.223
254.485
251.684
248.83
245.931
242.996
240.033
237.051
234.057
231.059
228.062
225.076
222.107
219.157
216.235
213.348
210.492
207.678
204.915
202.169
199.502
196.929
194.518
192.554
191.038
189.684
188.436
187.277
186.197
185.186
184.234
183.327
182.437
181.559
181.46
2.00279
1.00267
0.893255
0.930712
1.02896
1.16849
1.34314
1.54956
1.78416
2.04319
2.32346
2.62271
2.93959
3.27334
3.62367
3.99057
4.37421
4.77496
5.19332
5.6299
6.08543
6.56073
7.05669
7.57426
8.11448
8.6784
9.26718
9.88198
10.524
11.1946
11.895
12.6267
13.3911
14.1896
15.0237
15.895
16.805
17.7551
18.7469
19.7816
20.8603
21.9841
23.1537
24.3703
25.635
26.9492
28.3142
29.7311
31.2012
32.7258
34.3058
35.9426
37.6371
39.3903
41.2033
43.0769
45.0119
47.0092
49.0694
51.193
53.3806
55.6327
57.9493
60.3308
62.7771
65.2882
67.8637
70.5034
73.2066
75.9728
78.8009
81.69
84.6389
87.6462
90.7104
93.8297
97.0022
100.226
103.499
106.818
110.181
113.585
117.028
120.506
124.016
127.555
131.119
134.705
138.31
141.929
145.559
149.196
152.838
156.479
160.118
163.752
167.378
170.995
174.602
178.198
181.766
185.281
188.733
192.114
195.417
198.637
201.766
204.798
207.728
210.548
213.253
215.836
218.293
220.617
222.804
224.847
226.743
228.488
230.078
231.509
232.778
233.884
234.824
235.598
236.204
236.643
236.915
237.02
236.962
236.741
236.361
235.826
235.138
234.304
233.326
232.212
230.966
229.594
228.103
226.5
224.791
222.985
221.086
219.104
217.045
214.918
212.729
210.485
208.193
205.861
203.496
201.104
198.69
196.264
193.829
191.39
188.954
186.528
184.112
181.71
179.334
176.973
174.642
172.358
170.101
167.895
165.755
163.716
161.868
160.225
158.697
157.251
155.879
154.576
153.347
152.201
151.159
150.285
149.686
150.133
2.84546
1.43779
1.23797
1.24574
1.33219
1.46691
1.63929
1.84367
2.07561
2.33121
2.60725
2.90141
3.2122
3.53885
3.88107
4.23894
4.61276
5.00304
5.41039
5.83552
6.27925
6.74244
7.226
7.7309
8.25815
8.80879
9.38389
9.98455
10.6119
11.2671
11.9514
12.6659
13.4119
14.1906
15.0032
15.8511
16.7353
17.6572
18.6178
19.6184
20.6599
21.7434
22.8701
24.041
25.2574
26.5205
27.8315
29.1916
30.602
32.0637
33.5781
35.1462
36.769
38.4477
40.1831
41.9762
43.8279
45.7391
47.7105
49.7426
51.8363
53.9918
56.2096
58.49
60.8332
63.2392
65.7079
68.239
70.8322
73.487
76.2026
78.9783
81.8131
84.7057
87.6549
90.6591
93.7169
96.8263
99.9854
103.192
106.445
109.74
113.077
116.451
119.862
123.305
126.778
130.277
133.801
137.345
140.906
144.481
148.066
151.657
155.251
158.844
162.432
166.012
169.58
173.126
176.635
180.091
183.488
186.817
190.072
193.246
196.333
199.327
202.221
205.009
207.684
210.242
212.676
214.981
217.151
219.182
221.069
222.807
224.393
225.823
227.094
228.205
229.152
229.936
230.554
231.008
231.297
231.422
231.384
231.186
230.831
230.321
229.661
228.855
227.907
226.823
225.608
224.268
222.808
221.237
219.56
217.785
215.917
213.965
211.935
209.835
207.672
205.452
203.181
200.869
198.522
196.144
193.742
191.323
188.893
186.455
184.014
181.58
179.15
176.727
174.333
171.959
169.61
167.297
165.015
162.774
160.587
158.474
156.476
154.601
152.815
151.104
149.462
147.892
146.402
145.013
143.758
142.717
141.996
142.074
4.161
1.93374
1.58842
1.55014
1.61695
1.74119
1.90639
2.10461
2.33068
2.58063
2.85133
3.14049
3.44657
3.76874
4.10665
4.46035
4.83018
5.21664
5.62038
6.04217
6.48283
6.94324
7.42433
7.92706
8.45243
9.00145
9.57517
10.1747
10.801
11.4553
12.1387
12.8523
13.5972
14.3746
15.1858
16.0318
16.9137
17.8329
18.7904
19.7873
20.8249
21.9042
23.0266
24.1932
25.4053
26.6642
27.9712
29.3277
30.7348
32.1938
33.7062
35.273
36.8956
38.5752
40.3129
42.1098
43.9672
45.8859
47.8669
49.9113
52.0197
54.193
56.4317
58.7364
61.1075
63.5454
66.05
68.6216
71.2599
73.9646
76.7353
79.5714
82.4721
85.4363
88.4631
91.5511
94.6988
97.9047
101.167
104.484
107.853
111.273
114.741
118.255
121.812
125.409
129.045
132.716
136.418
140.149
143.905
147.683
151.477
155.285
159.1
162.919
166.736
170.546
174.342
178.109
181.832
185.502
189.11
192.648
196.108
199.485
202.77
205.957
209.038
212.009
214.861
217.588
220.185
222.645
224.962
227.132
229.148
231.008
232.705
234.237
235.6
236.792
237.811
238.655
239.324
239.817
240.134
240.277
240.247
240.046
239.677
239.142
238.447
237.596
236.594
235.446
234.158
232.735
231.184
229.513
227.729
225.838
223.848
221.766
219.598
217.355
215.044
212.669
210.238
207.759
205.242
202.689
200.105
197.501
194.884
192.251
189.61
186.979
184.354
181.737
179.14
176.563
174.009
171.486
168.994
166.54
164.131
161.783
159.518
157.341
155.24
153.208
151.247
149.362
147.566
145.884
144.355
143.054
142.058
141.649
5.71618
2.45622
1.92743
1.83015
1.8708
1.98034
2.13518
2.32466
2.54267
2.78503
3.04868
3.3314
3.63167
3.9486
4.28182
4.63132
4.99738
5.38052
5.78136
6.20067
6.63928
7.09807
7.57798
8.07996
8.60501
9.15415
9.72842
10.3289
10.9566
11.6126
12.2981
13.0142
13.762
14.5428
15.3575
16.2076
17.094
18.0182
18.9812
19.9845
21.0291
22.1165
23.248
24.425
25.6489
26.9212
28.2433
29.6167
31.0429
32.5235
34.0598
35.6536
37.3061
39.019
40.7936
42.6315
44.5341
46.5026
48.5384
50.6427
52.8167
55.0615
57.3781
59.7673
62.2299
64.7666
67.3778
70.0638
72.8248
75.6609
78.5717
81.557
84.6163
87.7486
90.9532
94.2288
97.5742
100.988
104.468
108.013
111.621
115.29
119.018
122.801
126.639
130.527
134.464
138.446
142.47
146.532
150.629
154.756
158.908
163.081
167.267
171.462
175.658
179.849
184.023
188.16
192.249
196.28
200.243
204.131
207.934
211.646
215.258
218.762
222.152
225.419
228.557
231.557
234.414
237.121
239.671
242.059
244.278
246.324
248.193
249.879
251.38
252.692
253.815
254.745
255.482
256.025
256.376
256.535
256.503
256.284
255.879
255.292
254.528
253.593
252.491
251.228
249.81
248.243
246.535
244.694
242.727
240.643
238.448
236.149
233.756
231.278
228.723
226.097
223.405
220.659
217.869
215.038
212.164
209.27
206.361
203.438
200.504
197.573
194.645
191.726
188.821
185.935
183.071
180.234
177.427
174.656
171.927
169.252
166.643
164.106
161.638
159.238
156.911
154.666
152.52
150.499
148.64
147.009
145.655
144.743
7.31486
2.9643
2.23944
2.07737
2.08816
2.18034
2.32282
2.50198
2.71055
2.944
3.19925
3.47412
3.76714
4.07742
4.40455
4.74849
5.10948
5.48799
5.88464
6.30018
6.73543
7.19128
7.66866
8.16855
8.69194
9.23987
9.81338
10.4135
11.0415
11.6982
12.385
13.103
13.8533
14.6372
15.4558
16.3106
17.2027
18.1335
19.1044
20.1167
21.1719
22.2716
23.4172
24.6103
25.8525
27.1456
28.4913
29.8912
31.3472
32.861
34.4346
36.0697
37.7681
39.5318
41.3626
43.2622
45.2325
47.2753
49.3923
51.5852
53.8555
56.2048
58.6345
61.1459
63.7401
66.4183
69.1813
72.0299
74.9645
77.9854
81.0929
84.2869
87.5669
90.9326
94.3831
97.9174
101.534
105.233
109.01
112.866
116.797
120.802
124.879
129.024
133.235
137.51
141.846
146.238
150.684
155.18
159.72
164.301
168.917
173.56
178.224
182.902
187.585
192.265
196.917
201.527
206.083
210.574
214.99
219.321
223.559
227.693
231.716
235.618
239.392
243.028
246.52
249.857
253.035
256.044
258.877
261.53
263.994
266.264
268.336
270.205
271.866
273.318
274.557
275.583
276.393
276.989
277.369
277.536
277.49
277.236
276.775
276.112
275.251
274.2
272.963
271.547
269.958
268.203
266.29
264.228
262.026
259.693
257.235
254.661
251.978
249.201
246.338
243.394
240.37
237.288
234.156
230.979
227.758
224.509
221.238
217.949
214.648
211.343
208.039
204.742
201.456
198.186
194.937
191.713
188.519
185.36
182.241
179.171
176.16
173.214
170.334
167.523
164.789
162.144
159.605
157.201
154.964
152.95
151.181
149.764
8.87464
3.44032
2.51817
2.28937
2.26835
2.34149
2.47023
2.63795
2.83611
3.0597
3.3055
3.57135
3.8558
4.15799
4.47749
4.81424
5.16845
5.54056
5.93118
6.34103
6.77093
7.22177
7.6945
8.1901
8.70959
9.25403
9.82448
10.4221
11.0479
11.7032
12.3892
13.1069
13.8579
14.6432
15.4643
16.3226
17.2194
18.1563
19.1348
20.1565
21.2231
22.3362
23.4976
24.7092
25.9728
27.2905
28.6642
30.0961
31.5881
33.1426
34.7617
36.4476
38.2027
40.0292
41.9294
43.9057
45.9602
48.0953
50.3132
52.6161
55.006
57.4851
60.0552
62.7181
65.4757
68.3292
71.2802
74.3297
77.4788
80.7281
84.0781
87.5291
91.0809
94.7334
98.4858
102.337
106.287
110.333
114.474
118.708
123.032
127.446
131.945
136.527
141.19
145.93
150.744
155.628
160.579
165.591
170.66
175.78
180.944
186.144
191.373
196.619
201.874
207.123
212.333
217.494
222.592
227.616
232.554
237.396
242.131
246.749
251.239
255.593
259.801
263.852
267.74
271.454
274.986
278.329
281.474
284.415
287.144
289.655
291.943
294.003
295.832
297.425
298.781
299.897
300.774
301.41
301.807
301.966
301.888
301.576
301.036
300.27
299.284
298.085
296.68
295.076
293.279
291.298
289.139
286.813
284.332
281.705
278.939
276.04
273.016
269.892
266.671
263.36
259.965
256.501
252.977
249.4
245.776
242.117
238.428
234.718
230.992
227.258
223.521
219.787
216.063
212.353
208.663
204.997
201.36
197.757
194.194
190.68
187.221
183.824
180.493
177.234
174.058
170.976
168.009
165.182
162.527
160.085
157.863
155.936
10.3431
3.8749
2.76175
2.46692
2.41339
2.46647
2.58049
2.73591
2.92287
3.13583
3.37135
3.6272
3.90197
4.1948
4.50526
4.83328
5.17906
5.54302
5.92575
6.32797
6.75049
7.19421
7.6601
8.14915
8.66241
9.20099
9.766
10.3586
10.98
11.6315
12.3142
13.0296
13.779
14.5639
15.3856
16.2459
17.1462
18.0882
19.0737
20.1045
21.1825
22.3097
23.4881
24.7199
26.0072
27.3525
28.7581
30.2265
31.7602
33.3617
35.0339
36.7794
38.6009
40.5014
42.4835
44.5503
46.7045
48.9489
51.2864
53.7198
56.2517
58.8847
61.6215
64.4642
67.4153
70.4768
73.6505
76.938
80.3408
83.8601
87.4966
91.2509
95.1232
99.1134
103.221
107.445
111.785
116.239
120.805
125.481
130.264
135.153
140.143
145.233
150.418
155.695
161.06
166.509
172.038
177.641
183.313
189.046
194.833
200.664
206.53
212.419
218.319
224.194
230.023
235.792
241.487
247.096
252.606
258.004
263.278
268.418
273.411
278.247
282.916
287.408
291.712
295.819
299.72
303.406
306.869
310.102
313.097
315.846
318.344
320.587
322.57
324.291
325.747
326.936
327.859
328.514
328.902
329.026
328.888
328.491
327.84
326.94
325.796
324.416
322.807
320.979
318.938
316.693
314.248
311.619
308.82
305.86
302.747
299.489
296.097
292.588
288.97
285.252
281.442
277.553
273.595
269.576
265.505
261.391
257.242
253.066
248.87
244.661
240.446
236.233
232.026
227.832
223.657
219.505
215.382
211.295
207.248
203.248
199.305
195.424
191.611
187.874
184.225
180.677
177.251
173.971
170.863
167.961
165.258
162.817
11.6837
4.26254
2.97031
2.61221
2.52653
2.55913
2.65779
2.80023
2.97537
3.17705
3.40159
3.64668
3.91087
4.1933
4.49356
4.81158
5.14754
5.50186
5.87512
6.26804
6.68144
7.11623
7.5734
8.05397
8.55905
9.08978
9.64734
10.233
10.848
11.4937
12.1714
12.8828
13.6291
14.4121
15.2334
16.0948
16.9979
17.9448
18.9375
19.978
21.0685
22.2114
23.409
24.6639
25.9787
27.356
28.7988
30.3099
31.8925
33.5495
35.2843
37.1002
39.0004
40.9884
43.0677
45.2417
47.514
49.888
52.3672
54.9551
57.6549
60.47
63.4034
66.4583
69.6374
72.9435
76.3788
79.9456
83.6458
87.4808
91.4519
95.56
99.8053
104.188
108.708
113.364
118.154
123.078
128.133
133.317
138.626
144.058
149.609
155.274
161.051
166.935
172.921
179.005
185.181
191.443
197.785
204.199
210.675
217.202
223.768
230.358
236.952
243.5
249.989
256.405
262.733
268.959
275.068
281.046
286.88
292.557
298.065
303.393
308.528
313.459
318.177
322.671
326.931
330.948
334.714
338.221
341.46
344.423
347.106
349.503
351.611
353.427
354.95
356.178
357.111
357.749
358.092
358.143
357.906
357.385
356.585
355.512
354.168
352.567
350.718
348.627
346.305
343.76
341
338.038
334.889
331.563
328.069
324.418
320.622
316.694
312.644
308.485
304.226
299.877
295.45
290.955
286.401
281.797
277.152
272.476
267.775
263.057
258.331
253.604
248.881
244.17
239.477
234.807
230.168
225.564
221.003
216.491
212.036
207.646
203.327
199.089
194.945
190.909
187.001
183.243
179.658
176.272
173.071
170.112
12.8722
4.60025
3.14502
2.72803
2.61147
2.62373
2.70676
2.83581
2.99867
3.1886
3.40166
3.63543
3.8884
4.15972
4.44897
4.75608
5.08124
5.42486
5.78754
6.16998
6.57304
6.99765
7.44483
7.91565
8.41129
8.93294
9.48188
10.0594
10.667
11.3061
11.9782
12.685
13.4281
14.2093
15.0305
15.8936
16.8009
17.7544
18.7564
19.8094
20.9161
22.0789
23.3008
24.5848
25.9338
27.3512
28.8404
30.4047
32.0478
33.7735
35.5856
37.488
39.4848
41.5801
43.7781
46.0831
48.4991
51.0305
53.6815
56.4561
59.3584
62.3924
65.5619
68.8706
72.3218
75.9189
79.6648
83.5622
87.6132
91.8199
96.1837
100.706
105.386
110.225
115.223
120.378
125.688
131.152
136.767
142.531
148.438
154.486
160.669
166.983
173.423
179.984
186.66
193.445
200.334
207.32
214.394
221.547
228.769
236.046
243.364
250.704
258.006
265.251
272.42
279.499
286.472
293.323
300.034
306.591
312.978
319.183
325.191
330.991
336.57
341.916
347.018
351.866
356.449
360.759
364.787
368.526
371.964
375.093
377.911
380.413
382.595
384.456
385.993
387.207
388.098
388.666
388.911
388.838
388.453
387.759
386.763
385.47
383.888
382.027
379.896
377.505
374.864
371.983
368.872
365.543
362.01
358.284
354.377
350.301
346.069
341.691
337.182
332.552
327.813
322.977
318.053
313.054
307.99
302.87
297.704
292.501
287.27
282.02
276.758
271.492
266.23
260.98
255.747
250.538
245.361
240.221
235.126
230.083
225.099
220.184
215.344
210.592
205.938
201.4
196.994
192.743
188.665
184.783
181.074
177.596
13.8944
4.88694
3.28761
2.81739
2.67198
2.6646
2.73212
2.8477
2.99809
3.17607
3.37743
3.59963
3.84113
4.10103
4.37892
4.67474
4.98868
5.32117
5.67281
6.04434
6.43664
6.85068
7.28754
7.74837
8.23441
8.74697
9.28743
9.85728
10.458
11.0914
11.759
12.4627
13.2045
13.9864
14.8106
15.6793
16.5949
17.5601
18.5776
19.6501
20.7807
21.9726
23.2291
24.5537
25.9502
27.4222
28.9739
30.6093
32.3328
34.1489
36.0621
38.0772
40.1989
42.4323
44.7823
47.2539
49.8523
52.5824
55.4491
58.4575
61.612
64.9174
68.3781
71.9985
75.7825
79.7339
83.8561
88.1521
92.6245
97.2753
102.106
107.118
112.312
117.687
123.242
128.977
134.888
140.974
147.232
153.656
160.243
166.987
173.881
180.919
188.096
195.404
202.837
210.389
218.051
225.816
233.674
241.615
249.625
257.69
265.791
273.873
281.89
289.827
297.667
305.394
312.992
320.445
327.73
334.831
341.733
348.421
354.883
361.104
367.072
372.774
378.199
383.337
388.176
392.709
396.928
400.83
404.393
407.616
410.494
413.026
415.209
417.04
418.52
419.648
420.427
420.856
420.94
420.683
420.089
419.165
417.918
416.355
414.483
412.314
409.857
407.122
404.12
400.862
397.361
393.629
389.677
385.52
381.17
376.639
371.941
367.088
362.093
356.969
351.727
346.38
340.94
335.417
329.824
324.169
318.464
312.719
306.942
301.144
295.332
289.515
283.701
277.898
272.114
266.355
260.63
254.944
249.306
243.723
238.203
232.756
227.39
222.117
216.949
211.903
206.995
202.245
197.668
193.284
189.068
185.077
14.7467
5.12308
3.40018
2.88325
2.71171
2.68594
2.73858
2.84102
2.97918
3.14542
3.33531
3.54619
3.77647
4.02525
4.29211
4.57699
4.88011
5.20193
5.54307
5.90433
6.28663
6.69103
7.11868
7.57085
8.04889
8.55426
9.08851
9.65329
10.2504
10.8816
11.549
12.2547
13.0009
13.7901
14.6247
15.5074
16.4413
17.4292
18.4744
19.5804
20.7506
21.9889
23.2993
24.6859
26.1532
27.7057
29.3482
31.0857
32.9234
34.8664
36.9204
39.0909
41.3837
43.8045
46.3593
49.0541
51.8948
54.8873
58.0373
61.3504
64.8316
68.4861
72.3189
76.3349
80.5385
84.9337
89.5241
94.3129
99.3026
104.495
109.892
115.494
121.301
127.311
133.525
139.939
146.55
153.354
160.348
167.526
174.883
182.41
190.098
197.938
205.924
214.047
222.299
230.672
239.156
247.742
256.419
265.175
273.994
282.857
291.712
300.494
309.187
317.772
326.232
334.55
342.71
350.702
358.491
366.059
373.393
380.48
387.305
393.855
400.116
406.077
411.726
417.051
422.045
426.696
431
434.949
438.533
441.746
444.587
447.052
449.139
450.848
452.18
453.135
453.716
453.927
453.771
453.252
452.378
451.155
449.59
447.693
445.473
442.939
440.103
436.974
433.566
429.89
425.958
421.784
417.381
412.761
407.938
402.925
397.737
392.386
386.886
381.249
375.488
369.616
363.645
357.587
351.453
345.255
339.003
332.708
326.379
320.027
313.661
307.289
300.921
294.564
288.227
281.918
275.644
269.413
263.233
257.112
251.059
245.084
239.195
233.406
227.728
222.177
216.77
211.525
206.454
201.575
196.86
192.369
15.4359
5.31061
3.48501
2.92854
2.7342
2.69192
2.73092
2.82118
2.94798
3.10335
3.28269
3.48325
3.70342
3.94229
4.19945
4.47488
4.76884
5.08182
5.41453
5.76784
6.14279
6.54054
6.9624
7.40979
7.88425
8.38747
8.92123
9.48747
10.0882
10.7258
11.4024
12.1208
12.8835
13.6934
14.5537
15.4676
16.4387
17.4706
18.5673
19.7328
20.9716
22.2882
23.6874
25.1744
26.7544
28.433
30.216
32.1093
34.119
36.2515
38.5132
40.9108
43.4509
46.1404
48.986
51.9948
55.1736
58.5293
62.0685
65.7968
69.7189
73.8402
78.1661
82.7018
87.4515
92.4194
97.6086
103.022
108.661
114.528
120.623
126.945
133.494
140.267
147.262
154.475
161.901
169.535
177.37
185.401
193.623
202.027
210.588
219.301
228.157
237.147
246.261
255.488
264.817
274.236
283.732
293.292
302.896
312.486
321.986
331.382
340.654
349.784
358.755
367.549
376.149
384.537
392.69
400.591
408.223
415.571
422.621
429.36
435.773
441.85
447.58
452.952
457.957
462.588
466.839
470.702
474.173
477.247
479.92
482.192
484.062
485.532
486.601
487.274
487.553
487.444
486.951
486.08
484.839
483.235
481.277
478.974
476.337
473.377
470.103
466.528
462.665
458.525
454.123
449.47
444.581
439.469
434.148
428.632
422.934
417.068
411.048
404.886
398.597
392.193
385.686
379.089
372.413
365.671
358.874
352.032
345.155
338.255
331.341
324.421
317.506
310.604
303.724
296.874
290.063
283.298
276.589
269.943
263.37
256.88
250.483
244.191
238.017
231.976
226.084
220.357
214.807
209.447
204.252
199.282
15.9823
5.45314
3.54473
2.9563
2.74321
2.6871
2.71455
2.79452
2.91181
3.05824
3.22909
3.42159
3.63412
3.8658
4.11627
4.38559
4.67408
4.98236
5.31126
5.66181
6.03522
6.43287
6.85632
7.30727
7.78757
8.29921
8.84439
9.42546
10.045
10.7057
11.4105
12.1627
12.9655
13.8226
14.738
15.7158
16.7604
17.8765
19.0693
20.3436
21.7047
23.1584
24.7108
26.3681
28.1368
30.0237
32.0358
34.1802
36.4641
38.895
41.4805
44.2281
47.1455
50.2404
53.5203
56.9928
60.6655
64.5461
68.6432
72.9625
77.5025
82.2704
87.2717
92.511
97.9918
103.717
109.689
115.91
122.378
129.095
136.059
143.267
150.718
158.406
166.326
174.473
182.84
191.417
200.198
209.172
218.329
227.656
237.138
246.761
256.513
266.381
276.352
286.414
296.553
306.755
317.002
327.286
337.515
347.63
357.618
367.46
377.138
386.636
395.935
405.016
413.863
422.458
430.782
438.816
446.546
453.954
461.029
467.756
474.123
480.12
485.737
490.964
495.794
500.22
504.237
507.841
511.029
513.796
516.141
518.066
519.569
520.655
521.325
521.584
521.438
520.891
519.95
518.623
516.916
514.839
512.402
509.616
506.489
503.035
499.264
495.188
490.82
486.174
481.261
476.097
470.694
465.065
459.225
453.189
446.968
440.578
434.032
427.343
420.525
413.591
406.553
399.423
392.215
384.94
377.609
370.234
362.825
355.393
347.947
340.499
333.057
325.63
318.228
310.859
303.532
296.256
289.04
281.893
274.824
267.843
260.962
254.192
247.546
241.039
234.686
228.502
222.496
216.683
211.035
205.615
16.4248
5.55649
3.58258
2.9702
2.74341
2.67737
2.69678
2.76987
2.88119
3.02242
3.18884
3.37772
3.58751
3.81741
4.06721
4.3371
4.62761
4.93955
5.274
5.63228
6.01595
6.4268
6.86684
7.33829
7.84349
8.38498
8.96561
9.58849
10.257
10.9747
11.7456
12.5739
13.464
14.4209
15.4496
16.5557
17.7453
19.0247
20.4011
21.8802
23.4682
25.1727
27.0016
28.9626
31.064
33.3138
35.7204
38.2922
41.0375
43.9647
47.0821
50.398
53.9205
57.6573
61.6159
65.8037
70.2275
74.8936
79.808
84.9748
90.3964
96.0759
102.016
108.22
114.687
121.42
128.417
135.677
143.197
150.974
159.005
167.284
175.805
184.561
193.544
202.745
212.154
221.76
231.55
241.513
251.633
261.896
272.286
282.785
293.377
304.048
314.781
325.561
336.372
347.203
358.016
368.699
379.235
389.612
399.814
409.827
419.633
429.215
438.557
447.64
456.449
464.967
473.177
481.062
488.608
495.8
502.625
509.072
515.13
520.788
526.039
530.876
535.291
539.281
542.841
545.97
548.665
550.925
552.751
554.143
555.106
555.641
555.755
555.452
554.74
553.624
552.113
550.214
547.937
545.291
542.286
538.933
535.244
531.23
526.902
522.274
517.357
512.164
506.709
501.006
495.066
488.905
482.535
475.97
469.225
462.312
455.244
448.036
440.7
433.25
425.697
418.055
410.335
402.55
394.711
386.829
378.915
370.979
363.033
355.087
347.149
339.23
331.339
323.485
315.677
307.925
300.237
292.624
285.094
277.658
270.328
263.115
256.032
249.093
242.313
235.706
229.28
223.048
216.985
211.154
16.8269
5.62999
3.60365
2.97606
2.7424
2.67258
2.68995
2.76241
2.87437
3.01761
3.1875
3.38148
3.59821
3.83715
4.09837
4.38242
4.69025
5.02312
5.38252
5.77038
6.18896
6.64088
7.12912
7.65715
8.22814
8.84522
9.51275
10.2353
11.0178
11.8656
12.7842
13.7799
14.8591
16.0287
17.2961
18.6692
20.156
21.7653
23.5059
25.3866
27.4161
29.604
31.9598
34.493
37.213
40.1293
43.2509
46.5867
50.1452
53.9346
57.9624
62.2359
66.7617
71.5458
76.5934
81.909
87.4963
93.3581
99.4963
105.911
112.603
119.569
126.809
134.321
142.101
150.145
158.449
167.006
175.81
184.854
194.13
203.63
213.344
223.261
233.37
243.659
254.115
264.724
275.471
286.341
297.317
308.38
319.512
330.694
341.904
353.133
364.349
375.549
386.708
397.72
408.535
419.157
429.581
439.797
449.794
459.557
469.072
478.323
487.295
495.974
504.343
512.389
520.097
527.453
534.442
541.053
547.275
553.097
558.51
563.507
568.08
572.225
575.936
579.211
582.049
584.448
586.408
587.931
589.018
589.673
589.899
589.703
589.089
588.064
586.637
584.815
582.607
580.021
577.067
573.756
570.097
566.102
561.783
557.15
552.215
546.991
541.489
535.723
529.705
523.447
516.963
510.265
503.367
496.282
489.022
481.601
474.032
466.328
458.5
450.562
442.527
434.405
426.21
417.952
409.644
401.296
392.919
384.524
376.122
367.722
359.335
350.97
342.637
334.346
326.104
317.923
309.811
301.779
293.835
285.992
278.259
270.649
263.175
255.851
248.689
241.703
234.902
228.298
221.865
215.67
17.3179
5.69022
3.6174
2.9856
2.75575
2.69287
2.71948
2.8034
2.9293
3.08924
3.27902
3.49654
3.74099
4.01248
4.31181
4.64029
5.00007
5.3937
5.8229
6.29123
6.80261
7.36142
7.97249
8.64117
9.37319
10.1747
11.0527
12.0147
13.0688
14.2236
15.4884
16.8731
18.3877
20.0433
21.851
23.8222
25.9689
28.3026
30.8352
33.5781
36.5421
39.7381
43.176
46.8653
50.8146
55.0314
59.5225
64.2933
69.3484
74.691
80.3236
86.2475
92.4633
98.97
105.766
112.848
120.212
127.854
135.767
143.945
152.38
161.065
169.992
179.151
188.536
198.136
207.94
217.94
228.124
238.482
249.004
259.676
270.489
281.428
292.482
303.637
314.877
326.188
337.554
348.959
360.381
371.8
383.204
394.561
405.844
417.082
428.183
439.066
449.692
460.082