/*--------------------------------*- C++ -*----------------------------------*\
| =========                 |                                                 |
| \\      /  F ield         | OpenFOAM: The Open Source CFD Toolbox           |
|  \\    /   O peration     | Version:  2.2.x                                 |
|   \\  /    A nd           | Web:      www.OpenFOAM.org                      |
|    \\/     M anipulation  |                                                 |
\*---------------------------------------------------------------------------*/
FoamFile
{
    version     2.0;
    format      ascii;
    class       volScalarField;
    location    "700";
    object      k;
}
// * * * * * * * * * * * * * * * * * * * * * * * * * * * * * * * * * * * * * //

dimensions      [0 2 -2 0 0 0 0];

internalField   nonuniform List<scalar> 
12225
(
0.773254
1.11727
1.35409
1.50336
1.59083
1.63716
1.65702
1.66036
1.65367
1.64113
1.62538
1.60808
1.59026
1.57255
1.55532
1.53877
1.52277
1.5087
0.492803
0.515897
0.520062
0.519337
0.515968
0.511066
0.505594
0.500234
0.495408
0.491347
0.488152
0.485846
0.484397
0.483755
0.483866
0.484765
0.487059
0.490698
0.412017
0.424095
0.421858
0.414167
0.404224
0.393409
0.38246
0.371808
0.361711
0.35232
0.343712
0.335915
0.328924
0.322712
0.317244
0.312486
0.308405
0.304815
0.381869
0.385949
0.386337
0.383939
0.379748
0.374467
0.368564
0.362354
0.35605
0.349796
0.343693
0.337808
0.332185
0.32685
0.321818
0.317093
0.312665
0.308533
0.375243
0.375519
0.374935
0.373413
0.371106
0.368205
0.364883
0.361285
0.357522
0.353678
0.349819
0.345993
0.342235
0.338572
0.335022
0.331599
0.328311
0.32518
0.373469
0.372204
0.370886
0.369331
0.367504
0.365429
0.363154
0.360729
0.358201
0.35561
0.35299
0.350369
0.347767
0.345203
0.342689
0.340237
0.337856
0.335571
0.372982
0.371101
0.36935
0.367626
0.365876
0.364075
0.362218
0.360314
0.358375
0.356415
0.354447
0.352485
0.35054
0.34862
0.346734
0.344888
0.343089
0.341358
0.372867
0.370792
0.36886
0.367023
0.365244
0.363498
0.361769
0.360051
0.358343
0.356647
0.354967
0.353307
0.351672
0.350066
0.348494
0.346958
0.345462
0.344026
0.372829
0.37068
0.368664
0.366759
0.364944
0.363201
0.361515
0.359875
0.358275
0.356712
0.355184
0.353691
0.352233
0.35081
0.349424
0.348076
0.346767
0.345513
0.372814
0.370635
0.368578
0.366633
0.364788
0.363032
0.361354
0.359745
0.358197
0.356704
0.355262
0.353868
0.35252
0.351216
0.349954
0.348733
0.347553
0.346428
0.372807
0.370616
0.368542
0.366578
0.364715
0.362946
0.361263
0.35966
0.358129
0.356665
0.355263
0.353919
0.352629
0.35139
0.350199
0.349055
0.347955
0.346911
0.372803
0.370607
0.368526
0.366553
0.36468
0.362903
0.361214
0.359608
0.358079
0.356623
0.355234
0.353908
0.352642
0.351432
0.350274
0.349167
0.348107
0.347105
0.3728
0.370601
0.368516
0.366539
0.364662
0.36288
0.361186
0.359577
0.358045
0.356588
0.355201
0.353878
0.352618
0.351416
0.350269
0.349174
0.34813
0.347145
0.372797
0.370597
0.36851
0.36653
0.36465
0.362865
0.361168
0.359556
0.358022
0.356562
0.355172
0.353849
0.352588
0.351386
0.35024
0.349147
0.348105
0.347123
0.372796
0.370594
0.368505
0.366523
0.364641
0.362854
0.361155
0.35954
0.358004
0.356542
0.35515
0.353824
0.352561
0.351357
0.35021
0.349115
0.348071
0.347089
0.372795
0.370592
0.368502
0.366518
0.364635
0.362846
0.361146
0.359529
0.357991
0.356527
0.355133
0.353805
0.35254
0.351334
0.350185
0.349088
0.348043
0.347058
0.372794
0.370591
0.3685
0.366515
0.364631
0.362841
0.361139
0.359521
0.357981
0.356516
0.355121
0.353792
0.352525
0.351317
0.350166
0.349068
0.348021
0.347035
0.372794
0.37059
0.368499
0.366514
0.364629
0.362838
0.361136
0.359517
0.357977
0.356511
0.355114
0.353784
0.352517
0.351308
0.350156
0.349057
0.348009
0.347022
0.372794
0.37059
0.3685
0.366515
0.36463
0.362839
0.361137
0.359517
0.357977
0.35651
0.355114
0.353784
0.352516
0.351307
0.350154
0.349054
0.348007
0.34702
0.372795
0.370591
0.368501
0.366517
0.364632
0.362842
0.36114
0.359521
0.357981
0.356515
0.355119
0.353789
0.352522
0.351313
0.350161
0.349062
0.348014
0.347027
0.372795
0.370593
0.368504
0.36652
0.364637
0.362848
0.361148
0.359531
0.357993
0.356529
0.355135
0.353807
0.352541
0.351334
0.350182
0.349084
0.348036
0.347049
0.372797
0.370596
0.368509
0.36653
0.364652
0.362869
0.361175
0.359565
0.358034
0.356576
0.355187
0.353863
0.352599
0.351393
0.35024
0.349139
0.348087
0.347093
0.3728
0.370606
0.368532
0.36657
0.364713
0.362953
0.361282
0.359692
0.358177
0.35673
0.355346
0.354021
0.35275
0.351529
0.350357
0.349229
0.348147
0.347119
0.372815
0.370662
0.368649
0.366761
0.36498
0.363289
0.361672
0.360118
0.358617
0.357163
0.355752
0.35438
0.353046
0.351749
0.350487
0.349262
0.348072
0.346933
0.372911
0.370959
0.369194
0.367544
0.365953
0.364384
0.362817
0.361246
0.359669
0.358089
0.356513
0.354945
0.353391
0.351856
0.350345
0.348861
0.34741
0.346007
0.373469
0.372366
0.371364
0.370237
0.368904
0.367357
0.365627
0.363755
0.361779
0.359734
0.357646
0.35554
0.353433
0.35134
0.349272
0.347239
0.345247
0.343318
0.376461
0.378228
0.378834
0.378173
0.37655
0.374272
0.371563
0.368577
0.365422
0.362172
0.358881
0.355588
0.352324
0.34911
0.345962
0.342893
0.339913
0.337043
0.392606
0.401341
0.402165
0.399516
0.395305
0.390342
0.385014
0.379525
0.373995
0.368504
0.363108
0.357849
0.352758
0.347857
0.343161
0.33868
0.334413
0.330374
0.438298
0.449783
0.450807
0.449576
0.447828
0.44585
0.443726
0.441504
0.439218
0.436908
0.434611
0.432363
0.430196
0.428133
0.426191
0.424375
0.422671
0.421023
0.544749
0.705345
0.836387
0.946126
1.04199
1.12366
1.19167
1.24712
1.29142
1.32607
1.35255
1.37219
1.38619
1.39561
1.40132
1.40407
1.40447
1.403
0.00388915
0.00590611
0.00739268
0.00854375
0.00974373
0.0109282
0.0122988
0.0141359
0.016274
0.0186701
0.0212629
0.0240109
0.0268879
0.0298763
0.0329638
0.0361408
0.0394003
0.0427368
0.0461464
0.0496265
0.0531755
0.0567928
0.0604783
0.0642329
0.0680578
0.0719548
0.075926
0.0799741
0.0841022
0.0883138
0.092613
0.0970045
0.101494
0.106087
0.110792
0.115618
0.120578
0.125686
0.13096
0.136425
0.142114
0.148067
0.154216
0.160525
0.166996
0.173632
0.180436
0.187411
0.194559
0.201882
0.209382
0.217061
0.224918
0.232957
0.241176
0.249577
0.25816
0.266923
0.275867
0.284991
0.294293
0.303771
0.313423
0.323247
0.33324
0.343398
0.353718
0.364196
0.374827
0.385606
0.396528
0.407587
0.418776
0.430089
0.441518
0.453055
0.464692
0.47642
0.48823
0.500111
0.512052
0.524042
0.536069
0.54812
0.560181
0.572238
0.584275
0.596278
0.608228
0.62011
0.631906
0.6436
0.655174
0.666614
0.677907
0.689042
0.700015
0.710833
0.721513
0.732095
0.742589
0.752781
0.762659
0.772213
0.781427
0.790289
0.798785
0.806902
0.814627
0.821947
0.82885
0.835325
0.84136
0.846946
0.852072
0.85673
0.860913
0.864613
0.867826
0.870547
0.872774
0.874504
0.875739
0.876478
0.876724
0.876481
0.875753
0.874547
0.872871
0.870733
0.868146
0.865122
0.861672
0.857812
0.853556
0.848919
0.84392
0.838576
0.832907
0.826932
0.82067
0.814139
0.80736
0.800356
0.793147
0.785754
0.778193
0.770486
0.762656
0.754722
0.746699
0.738606
0.730464
0.722293
0.714101
0.705904
0.697729
0.689584
0.681469
0.673418
0.665437
0.657513
0.649695
0.641972
0.634302
0.626789
0.619459
0.612568
0.607994
0.605141
0.602661
0.600405
0.598339
0.596423
0.594602
0.592734
0.590645
0.587576
0.582994
0.569348
0.00826616
0.0130111
0.0176025
0.0214921
0.0247615
0.0278427
0.0309918
0.0343657
0.0380126
0.0419168
0.0460489
0.0503861
0.0549144
0.0596249
0.0645121
0.0695716
0.0748004
0.0801965
0.0857588
0.0914873
0.0973825
0.103446
0.10968
0.116087
0.122671
0.129435
0.136383
0.14352
0.150852
0.158383
0.166119
0.174067
0.182234
0.190625
0.199248
0.208112
0.217223
0.22659
0.236222
0.246125
0.256306
0.266769
0.277515
0.288549
0.299879
0.311511
0.323451
0.335707
0.348283
0.361185
0.374418
0.387986
0.401893
0.416142
0.430737
0.445679
0.460972
0.476616
0.492613
0.508962
0.525665
0.542718
0.560123
0.577875
0.595973
0.614413
0.63319
0.652301
0.671738
0.691497
0.711569
0.731947
0.752623
0.773587
0.79483
0.81634
0.838106
0.860115
0.882355
0.904811
0.927469
0.950312
0.973323
0.996484
1.01978
1.04318
1.06666
1.09022
1.11381
1.13741
1.16099
1.18453
1.20799
1.23134
1.25456
1.27761
1.30046
1.32309
1.34547
1.36759
1.38921
1.41038
1.43112
1.45138
1.47115
1.49039
1.50909
1.5272
1.54471
1.56158
1.57778
1.5933
1.6081
1.62216
1.63546
1.64796
1.65966
1.67052
1.68054
1.68969
1.69796
1.70535
1.71183
1.71741
1.72207
1.72583
1.72867
1.7306
1.73164
1.73177
1.73103
1.72942
1.72696
1.72367
1.71957
1.71469
1.70906
1.70269
1.69563
1.6879
1.67955
1.67059
1.66108
1.65104
1.64052
1.62955
1.61817
1.60642
1.59434
1.58197
1.56935
1.55651
1.54348
1.53033
1.51706
1.50372
1.49034
1.47697
1.46361
1.4503
1.43709
1.42398
1.41099
1.3982
1.38548
1.37302
1.36086
1.34909
1.33786
1.3273
1.31709
1.30722
1.29767
1.28843
1.27947
1.27072
1.2621
1.25347
1.2442
1.23313
0.0119945
0.0216577
0.0284772
0.0335807
0.0380447
0.0423295
0.0466916
0.0512731
0.0561312
0.0612703
0.0666746
0.0723267
0.0782133
0.0843258
0.0906585
0.0972082
0.103973
0.110952
0.118145
0.125553
0.133179
0.141024
0.149092
0.157387
0.165913
0.174675
0.18368
0.192932
0.202438
0.212205
0.22224
0.23255
0.243144
0.254027
0.26521
0.276701
0.288506
0.300636
0.313097
0.325897
0.339043
0.352541
0.3664
0.380625
0.395227
0.410213
0.425592
0.44137
0.457555
0.474152
0.491169
0.50861
0.526481
0.544785
0.563527
0.582709
0.602334
0.622404
0.642921
0.663884
0.685292
0.707146
0.729442
0.752178
0.77535
0.798953
0.822982
0.847429
0.872287
0.897548
0.923201
0.949237
0.975643
1.00241
1.02952
1.05696
1.08471
1.11276
1.14109
1.16969
1.19853
1.2276
1.25686
1.28631
1.31591
1.34564
1.37548
1.4054
1.43536
1.46534
1.4953
1.5252
1.55502
1.58472
1.61425
1.64358
1.67266
1.70147
1.72996
1.75805
1.78559
1.8126
1.83906
1.86493
1.89017
1.91477
1.93867
1.96184
1.98425
2.00586
2.02663
2.04654
2.06554
2.08361
2.10071
2.11682
2.1319
2.14594
2.1589
2.17076
2.18151
2.19113
2.19961
2.20694
2.2131
2.21811
2.22195
2.22463
2.22615
2.22654
2.22579
2.22392
2.22097
2.21695
2.21189
2.20582
2.19876
2.19076
2.18185
2.17208
2.16148
2.1501
2.13799
2.12518
2.11172
2.09768
2.08309
2.06799
2.05245
2.0365
2.02021
2.0036
1.98673
1.96966
1.95242
1.93504
1.91758
1.90009
1.8826
1.86511
1.84774
1.83043
1.81325
1.79633
1.77958
1.76309
1.74692
1.73115
1.71586
1.70112
1.68678
1.67285
1.65933
1.64625
1.63361
1.62144
1.60978
1.59873
1.58805
1.57813
0.0151565
0.0297406
0.0383537
0.0447503
0.0502921
0.0555478
0.0608216
0.0662814
0.072008
0.0780282
0.0843412
0.0909358
0.0978002
0.104925
0.112303
0.119931
0.127806
0.135929
0.144299
0.152919
0.161791
0.17092
0.180308
0.189962
0.199887
0.210088
0.220573
0.231347
0.242419
0.253796
0.265486
0.277498
0.289839
0.302519
0.315547
0.328931
0.342681
0.356804
0.371311
0.38621
0.401509
0.417217
0.433342
0.449895
0.466883
0.484318
0.502206
0.520558
0.539381
0.558683
0.57847
0.59875
0.619529
0.640812
0.662603
0.684907
0.707727
0.731066
0.754925
0.779306
0.804207
0.829629
0.855568
0.882022
0.908987
0.936458
0.964427
0.992886
1.02183
1.05124
1.08112
1.11144
1.14219
1.17337
1.20494
1.2369
1.26923
1.30191
1.33491
1.36822
1.40181
1.43566
1.46975
1.50405
1.53853
1.57316
1.60793
1.64278
1.6777
1.71265
1.74759
1.78248
1.81729
1.85196
1.88646
1.92074
1.95475
1.98845
2.0218
2.05461
2.08685
2.11849
2.1495
2.17982
2.20942
2.23826
2.2663
2.29349
2.3198
2.34517
2.36958
2.39298
2.41533
2.43659
2.45673
2.47571
2.4935
2.51006
2.52538
2.53941
2.55214
2.56356
2.57364
2.58237
2.58975
2.59576
2.60041
2.6037
2.60563
2.60622
2.60547
2.60341
2.60006
2.59546
2.58962
2.58258
2.57437
2.56504
2.55463
2.54318
2.53075
2.51738
2.50313
2.48803
2.47215
2.45556
2.43829
2.42041
2.40196
2.38301
2.36363
2.34384
2.32371
2.3033
2.28266
2.26183
2.24085
2.21981
2.19872
2.17757
2.15657
2.13566
2.11489
2.09433
2.07399
2.0539
2.03414
2.01477
1.99587
1.97747
1.95952
1.94202
1.92501
1.90856
1.89272
1.87759
1.86332
1.85016
1.83805
1.82766
0.0195234
0.0368968
0.0472171
0.0548322
0.0613566
0.0674553
0.0734806
0.0796324
0.0860193
0.092692
0.0996676
0.106946
0.114519
0.12238
0.130522
0.138941
0.147635
0.156603
0.165846
0.175367
0.18517
0.195259
0.205638
0.216314
0.227293
0.238582
0.250188
0.262119
0.274383
0.286988
0.299944
0.313258
0.326942
0.341003
0.355452
0.370298
0.385551
0.401222
0.41732
0.433854
0.450836
0.468275
0.486181
0.504565
0.523437
0.542809
0.56269
0.583089
0.604018
0.625484
0.647497
0.670065
0.693194
0.716893
0.741167
0.766021
0.791462
0.817491
0.844112
0.871328
0.899139
0.927544
0.956542
0.986131
1.01631
1.04706
1.07839
1.11029
1.14274
1.17574
1.20927
1.24332
1.27788
1.31292
1.34842
1.38437
1.42075
1.45754
1.4947
1.53222
1.57007
1.60823
1.64666
1.68534
1.72424
1.76333
1.80258
1.84195
1.88141
1.92092
1.96044
1.99992
2.03933
2.07862
2.11773
2.1566
2.19519
2.23344
2.27129
2.30853
2.34515
2.38109
2.41633
2.45079
2.48445
2.51725
2.54915
2.5801
2.61004
2.63894
2.66675
2.69342
2.71891
2.74317
2.76617
2.78786
2.8082
2.82716
2.84471
2.86082
2.87545
2.8886
2.90023
2.91033
2.9189
2.92592
2.9314
2.93533
2.93771
2.93856
2.93789
2.93573
2.93209
2.92701
2.92052
2.91264
2.90343
2.89293
2.88117
2.86822
2.85412
2.83893
2.82271
2.80551
2.78738
2.76841
2.74865
2.72815
2.70697
2.68519
2.66288
2.64007
2.61681
2.59321
2.56932
2.54514
2.52073
2.49627
2.47172
2.44713
2.4226
2.39815
2.37382
2.34968
2.32574
2.30207
2.2787
2.25573
2.2332
2.21116
2.18959
2.16853
2.14804
2.1282
2.10914
2.09102
2.07405
2.05855
2.0445
2.03248
0.0241314
0.043199
0.0549653
0.0636586
0.0710626
0.0779093
0.0845855
0.0913167
0.0982348
0.105413
0.112886
0.120666
0.128756
0.137152
0.145849
0.154845
0.164139
0.173729
0.183618
0.19381
0.204307
0.215115
0.226241
0.237689
0.249468
0.261585
0.274049
0.286866
0.300047
0.313601
0.327536
0.341863
0.356592
0.371734
0.387297
0.403294
0.419736
0.436633
0.453996
0.471837
0.490168
0.509
0.528345
0.548215
0.568622
0.589578
0.611095
0.633185
0.655859
0.679129
0.703003
0.727494
0.75261
0.77836
0.804753
0.831795
0.859493
0.887854
0.916881
0.946578
0.976947
1.00799
1.03971
1.07209
1.10515
1.13887
1.17325
1.20827
1.24394
1.28023
1.31713
1.35464
1.39272
1.43137
1.47056
1.51027
1.55047
1.59114
1.63226
1.6738
1.71572
1.758
1.80061
1.84352
1.88668
1.93008
1.97368
2.01743
2.0613
2.10526
2.14925
2.19323
2.23715
2.28095
2.32458
2.36798
2.41107
2.45381
2.49605
2.53764
2.57855
2.61871
2.65809
2.69663
2.73426
2.77095
2.80663
2.84126
2.87478
2.90714
2.93828
2.96817
2.99675
3.02397
3.04978
3.07415
3.09703
3.11837
3.13814
3.15631
3.17285
3.18773
3.20093
3.21243
3.22222
3.23029
3.23663
3.24125
3.24414
3.24532
3.2448
3.2426
3.23875
3.23327
3.22621
3.21759
3.20746
3.19586
3.18284
3.16847
3.15279
3.13587
3.11776
3.09852
3.07822
3.05694
3.03474
3.01169
2.98781
2.96323
2.93802
2.91222
2.88583
2.85903
2.83189
2.80442
2.77668
2.74878
2.72075
2.69264
2.66453
2.63647
2.6085
2.58068
2.55305
2.52566
2.49857
2.47185
2.44557
2.41976
2.39446
2.3697
2.34559
2.32225
2.29982
2.27852
2.2586
2.24039
2.22384
2.2094
0.0284484
0.0485694
0.0615424
0.0711654
0.0793387
0.0868429
0.0940876
0.101315
0.108675
0.116256
0.124111
0.132265
0.14073
0.149509
0.158603
0.16801
0.177732
0.187769
0.198123
0.2088
0.219802
0.231137
0.242811
0.25483
0.267203
0.279938
0.293044
0.30653
0.320405
0.334679
0.349363
0.364467
0.380003
0.39598
0.412412
0.42931
0.446686
0.464552
0.482921
0.501807
0.521222
0.54118
0.561694
0.582778
0.604447
0.626713
0.649592
0.673097
0.697242
0.722039
0.747502
0.773644
0.800475
0.828008
0.856254
0.885221
0.914919
0.945355
0.976538
1.00847
1.04116
1.07461
1.10881
1.14378
1.17951
1.21598
1.25321
1.29118
1.32987
1.36929
1.40941
1.45022
1.49169
1.53382
1.57657
1.61993
1.66386
1.70833
1.75333
1.7988
1.84473
1.89109
1.93782
1.98491
2.03231
2.07998
2.1279
2.17601
2.22428
2.27267
2.32112
2.36958
2.41801
2.46633
2.51448
2.5624
2.61
2.65722
2.70383
2.74975
2.79492
2.83928
2.88278
2.92535
2.96693
3.00747
3.04691
3.08518
3.12224
3.15803
3.19249
3.22556
3.2572
3.28735
3.31596
3.34298
3.36837
3.39208
3.41407
3.4343
3.45274
3.46936
3.48414
3.49705
3.50809
3.51723
3.52448
3.52982
3.53326
3.53481
3.53449
3.5323
3.52829
3.52248
3.5149
3.50559
3.4946
3.48197
3.46775
3.45201
3.4348
3.4162
3.39626
3.37502
3.35258
3.32902
3.30441
3.27882
3.25225
3.22487
3.19676
3.16798
3.13855
3.1086
3.0782
3.0474
3.01627
2.98488
2.95331
2.9216
2.88983
2.85805
2.82632
2.7947
2.76325
2.73201
2.70105
2.67044
2.64025
2.61054
2.58135
2.55276
2.52488
2.49786
2.47187
2.44717
2.42401
2.40271
2.38317
2.36576
0.0323655
0.053038
0.0669895
0.0773894
0.086214
0.0942797
0.102011
0.109659
0.117385
0.125291
0.13344
0.141869
0.150601
0.159645
0.169009
0.178695
0.188705
0.199044
0.209714
0.220721
0.232071
0.243769
0.255824
0.268243
0.281035
0.294209
0.307774
0.321741
0.336119
0.35092
0.366154
0.381834
0.397971
0.414578
0.431667
0.449252
0.467347
0.485965
0.50512
0.524829
0.545105
0.565964
0.587422
0.609494
0.632198
0.65555
0.679565
0.70426
0.729652
0.755756
0.782588
0.810163
0.838496
0.867602
0.897493
0.928183
0.959683
0.992003
1.02515
1.05914
1.09398
1.12966
1.1662
1.20359
1.24184
1.28094
1.32089
1.36167
1.40329
1.44573
1.48897
1.533
1.5778
1.62334
1.66961
1.71656
1.76418
1.81243
1.86127
1.91068
1.96061
2.01103
2.0619
2.11317
2.16481
2.21678
2.26903
2.32152
2.3742
2.42703
2.47995
2.53292
2.58586
2.6387
2.69139
2.74383
2.79593
2.84759
2.89855
2.94876
2.99816
3.04668
3.09424
3.1408
3.18627
3.23061
3.27374
3.3156
3.35613
3.39528
3.43298
3.46918
3.50381
3.53683
3.56818
3.5978
3.62565
3.65168
3.67583
3.69808
3.71838
3.73671
3.75305
3.76735
3.77962
3.78984
3.79798
3.80405
3.80806
3.81
3.8099
3.80776
3.80362
3.79751
3.78946
3.77951
3.7677
3.75409
3.73872
3.72165
3.70297
3.68273
3.661
3.63781
3.61324
3.58744
3.56047
3.53238
3.50323
3.47313
3.44218
3.41044
3.37796
3.34486
3.3112
3.27705
3.24248
3.20758
3.17241
3.13704
3.10154
3.06597
3.03039
2.99488
2.95949
2.92429
2.88934
2.85473
2.82052
2.78678
2.75358
2.72103
2.68924
2.65838
2.62867
2.60036
2.5737
2.54898
2.52605
2.50526
0.0358478
0.0566677
0.0713884
0.0824178
0.0917746
0.100302
0.108434
0.116428
0.12445
0.132608
0.140976
0.1496
0.15851
0.167724
0.177254
0.187107
0.19729
0.207809
0.218667
0.229873
0.241433
0.253355
0.265646
0.278316
0.291374
0.30483
0.318694
0.332978
0.347692
0.362849
0.37846
0.394538
0.411098
0.428151
0.445714
0.463801
0.482426
0.501606
0.521358
0.541697
0.562642
0.58421
0.60642
0.629289
0.652837
0.677083
0.702046
0.727745
0.754199
0.781428
0.809451
0.838285
0.86795
0.898461
0.929837
0.962093
0.995244
1.0293
1.06428
1.1002
1.13705
1.17485
1.21361
1.25332
1.294
1.33563
1.37822
1.42176
1.46624
1.51164
1.55796
1.60517
1.65326
1.7022
1.75195
1.8025
1.8538
1.90583
1.95854
2.01189
2.06584
2.12035
2.17537
2.23085
2.28676
2.34303
2.39964
2.45651
2.51362
2.5709
2.6283
2.68575
2.7432
2.80055
2.85774
2.91467
2.97126
3.02722
3.08245
3.13686
3.19038
3.24294
3.29447
3.34489
3.39414
3.44215
3.48884
3.53416
3.57804
3.62041
3.66122
3.70041
3.73791
3.77366
3.80762
3.83972
3.86992
3.89814
3.92436
3.94852
3.97059
3.99055
4.00836
4.02399
4.03744
4.04867
4.05768
4.06445
4.06899
4.07131
4.07142
4.06934
4.06509
4.0587
4.0502
4.03964
4.02707
4.01252
3.99603
3.97768
3.95758
3.93577
3.91231
3.88727
3.86072
3.83279
3.80353
3.77303
3.74135
3.7086
3.67485
3.6402
3.60471
3.56848
3.53159
3.4941
3.45611
3.41769
3.37892
3.33987
3.30061
3.26121
3.22176
3.18231
3.14295
3.10373
3.06473
3.02604
2.98773
2.9499
2.91262
2.87601
2.84022
2.80543
2.77185
2.73976
2.70938
2.68099
2.65438
2.62991
0.0388857
0.059531
0.0748347
0.0863578
0.0961329
0.105024
0.11347
0.121732
0.129977
0.13832
0.146838
0.155586
0.164598
0.1739
0.183508
0.193436
0.203692
0.214284
0.225222
0.236512
0.248163
0.260185
0.272585
0.285374
0.298563
0.312162
0.326184
0.340639
0.35554
0.370901
0.386736
0.403057
0.419881
0.437222
0.455097
0.473522
0.492514
0.512093
0.532276
0.553082
0.574532
0.596646
0.619445
0.64295
0.667184
0.692168
0.717925
0.744477
0.771847
0.800058
0.829132
0.859091
0.889957
0.921751
0.954493
0.988202
1.0229
1.0586
1.09531
1.13306
1.17186
1.2117
1.25262
1.29459
1.33765
1.38177
1.42696
1.47322
1.52054
1.5689
1.61828
1.66867
1.72005
1.77239
1.82565
1.87981
1.93482
1.99065
2.04725
2.10458
2.16258
2.22121
2.2804
2.34012
2.4003
2.46089
2.52184
2.5831
2.64461
2.70631
2.76814
2.83003
2.89191
2.9537
3.01529
3.0766
3.13747
3.1976
3.25691
3.31533
3.37279
3.42921
3.4845
3.53858
3.59139
3.64285
3.69289
3.74144
3.78844
3.83381
3.87751
3.91946
3.9596
3.99788
4.03424
4.06862
4.10095
4.13119
4.15928
4.18519
4.20887
4.23029
4.24944
4.26627
4.28078
4.29294
4.30271
4.31011
4.31514
4.31779
4.31808
4.31603
4.31165
4.30497
4.29605
4.28491
4.27161
4.25618
4.23867
4.21917
4.19774
4.17446
4.14939
4.1226
4.09418
4.0642
4.03277
3.99996
3.96585
3.93053
3.89409
3.85661
3.81819
3.77891
3.73885
3.6981
3.65674
3.61485
3.57253
3.52983
3.48686
3.44368
3.40037
3.35701
3.31368
3.27045
3.22741
3.18464
3.14224
3.10031
3.05893
3.01825
2.97842
2.93963
2.90211
2.86612
2.83189
2.79964
2.76916
2.74082
0.041483
0.0617034
0.0774273
0.089322
0.0994102
0.108569
0.117245
0.125698
0.134096
0.142556
0.151159
0.159963
0.169009
0.178326
0.187936
0.197856
0.208098
0.218674
0.229594
0.240868
0.252505
0.264517
0.276914
0.289707
0.302907
0.316527
0.33058
0.345079
0.360038
0.375471
0.391394
0.407822
0.424773
0.442263
0.460312
0.478937
0.498159
0.517998
0.538476
0.559614
0.581435
0.603964
0.627223
0.651239
0.676035
0.701638
0.728075
0.75537
0.783551
0.812644
0.842675
0.873671
0.905656
0.938657
0.972697
1.0078
1.04398
1.08128
1.11969
1.15924
1.19995
1.24183
1.28488
1.32912
1.37455
1.42117
1.46898
1.51798
1.56815
1.61948
1.67197
1.72557
1.78028
1.83605
1.89286
1.95067
2.00943
2.0691
2.12962
2.19095
2.25303
2.31579
2.37918
2.44312
2.50757
2.57246
2.63772
2.7033
2.76914
2.83516
2.90131
2.96751
3.03368
3.09973
3.16556
3.23104
3.29583
3.35983
3.42294
3.48508
3.54617
3.60613
3.66486
3.72228
3.77832
3.8329
3.88595
3.9374
3.98718
4.03522
4.08147
4.12585
4.16831
4.2088
4.24725
4.28362
4.31781
4.34977
4.37947
4.40686
4.43192
4.45459
4.47486
4.4927
4.5081
4.52102
4.53143
4.53934
4.54474
4.54764
4.54806
4.546
4.54149
4.53455
4.52523
4.51356
4.49959
4.48336
4.46493
4.44436
4.42172
4.39708
4.37052
4.34211
4.31192
4.28004
4.24657
4.21158
4.17517
4.13741
4.09841
4.05825
4.01703
3.97482
3.93172
3.88783
3.84322
3.79799
3.75222
3.706
3.65942
3.61255
3.56548
3.51831
3.4711
3.42395
3.37694
3.33017
3.28375
3.23777
3.19236
3.14765
3.10381
3.06104
3.01957
2.97965
2.94149
2.90531
2.87086
2.83856
0.043654
0.0632611
0.0792633
0.0914216
0.101727
0.111068
0.119891
0.128459
0.13694
0.145451
0.154075
0.162873
0.171888
0.181154
0.190698
0.200537
0.210689
0.221168
0.231986
0.243156
0.254688
0.266596
0.278891
0.291586
0.304694
0.318229
0.332205
0.346637
0.361541
0.376934
0.392832
0.409254
0.426219
0.443746
0.461856
0.480572
0.499914
0.519908
0.540578
0.561948
0.584045
0.606896
0.63053
0.654973
0.680256
0.706408
0.733459
0.76144
0.790381
0.820313
0.851266
0.883271
0.916356
0.950552
0.985886
1.02239
1.06008
1.09898
1.13912
1.18052
1.22319
1.26714
1.31239
1.35895
1.40682
1.45601
1.5065
1.55831
1.61141
1.6658
1.72145
1.77834
1.83644
1.89571
1.95613
2.01764
2.08019
2.14373
2.20821
2.27357
2.33973
2.40663
2.47418
2.54232
2.61097
2.68007
2.74954
2.81931
2.88932
2.95949
3.02975
3.10002
3.17021
3.24022
3.30994
3.37907
3.4474
3.51484
3.58131
3.64672
3.71099
3.77404
3.83577
3.89606
3.95486
4.01209
4.06768
4.12156
4.17366
4.22392
4.27226
4.31863
4.36298
4.40523
4.44536
4.48333
4.51899
4.55231
4.58326
4.6118
4.6379
4.66153
4.68265
4.70124
4.71729
4.73075
4.74162
4.74989
4.75556
4.75863
4.75911
4.75701
4.75234
4.74515
4.73546
4.7233
4.70872
4.69176
4.67249
4.65095
4.62722
4.60136
4.57344
4.54354
4.51175
4.47814
4.44279
4.4058
4.36726
4.32725
4.28587
4.24321
4.19936
4.15442
4.10848
4.06163
4.01396
3.96556
3.91654
3.86697
3.81695
3.76657
3.71592
3.66509
3.61418
3.56326
3.51244
3.46183
3.41153
3.36165
3.31233
3.26371
3.21597
3.1693
3.12395
3.08014
3.03808
2.99797
2.95956
2.92327
0.045424
0.0642791
0.0804364
0.0927624
0.1032
0.112641
0.121536
0.130147
0.138643
0.147141
0.155725
0.164456
0.173381
0.182537
0.191951
0.201646
0.211641
0.221953
0.232597
0.243586
0.254934
0.266656
0.278766
0.291278
0.304207
0.317568
0.331379
0.345656
0.360417
0.375681
0.391468
0.407798
0.424693
0.442177
0.460272
0.479004
0.4984
0.518485
0.539289
0.56084
0.583168
0.606305
0.630282
0.655132
0.680889
0.707586
0.735259
0.763942
0.793669
0.824477
0.856398
0.889469
0.923722
0.959191
0.995907
1.0339
1.07321
1.11384
1.15584
1.19921
1.24398
1.29015
1.33774
1.38677
1.43722
1.48912
1.54245
1.5972
1.65337
1.71094
1.76987
1.83016
1.89175
1.95461
2.0187
2.08397
2.15035
2.21779
2.28623
2.35559
2.42581
2.49679
2.56843
2.64065
2.71336
2.78649
2.85995
2.93367
3.00757
3.08157
3.15557
3.22951
3.30328
3.37677
3.44973
3.52189
3.59315
3.66343
3.73263
3.80068
3.8675
3.93306
3.99715
4.05968
4.12062
4.17987
4.23739
4.29308
4.3469
4.39877
4.44864
4.49643
4.5421
4.58558
4.62684
4.66582
4.70244
4.73666
4.76844
4.79773
4.82451
4.84874
4.8704
4.88945
4.90588
4.91968
4.93081
4.93927
4.94505
4.94817
4.94861
4.9464
4.94155
4.93409
4.92403
4.91142
4.89629
4.87868
4.85866
4.83627
4.81157
4.78463
4.75553
4.72432
4.6911
4.65595
4.61894
4.58016
4.53972
4.49768
4.45416
4.40924
4.36302
4.31558
4.26704
4.21748
4.167
4.1157
4.06367
4.011
3.9578
3.90416
3.85018
3.79594
3.74155
3.68711
3.63272
3.57849
3.52453
3.47097
3.41795
3.36562
3.31415
3.26376
3.21466
3.1671
3.12125
3.07731
3.03502
2.99484
0.0468312
0.064833
0.0810365
0.0934445
0.103937
0.113404
0.1223
0.130887
0.139334
0.147758
0.156243
0.164851
0.173631
0.182621
0.191851
0.201345
0.211126
0.221211
0.231619
0.242365
0.253466
0.264937
0.276796
0.28906
0.301744
0.314868
0.328451
0.342512
0.357071
0.372151
0.387775
0.403967
0.420752
0.438157
0.45621
0.474939
0.494376
0.514552
0.535499
0.557251
0.579842
0.603308
0.627686
0.653013
0.679327
0.706668
0.735074
0.764586
0.795241
0.82708
0.860141
0.894462
0.93008
0.967032
1.00535
1.04508
1.08623
1.12885
1.17297
1.21859
1.26572
1.31438
1.36458
1.41633
1.46963
1.52448
1.58087
1.63879
1.69822
1.75915
1.82153
1.88535
1.95055
2.01708
2.08491
2.15396
2.22418
2.29548
2.36781
2.44108
2.51523
2.59016
2.66568
2.74172
2.8182
2.89502
2.9721
3.04933
3.12664
3.20393
3.2811
3.35807
3.43473
3.51083
3.58611
3.66049
3.73386
3.80615
3.87726
3.94712
4.01564
4.08274
4.14832
4.21228
4.27454
4.33504
4.3937
4.45046
4.50525
4.55802
4.6087
4.65723
4.70356
4.74764
4.78942
4.82886
4.86589
4.90048
4.93258
4.96215
4.98917
5.0136
5.03541
5.05459
5.07111
5.08495
5.0961
5.10454
5.11027
5.11328
5.11358
5.11118
5.10609
5.09833
5.08792
5.07489
5.05927
5.0411
5.02044
4.99732
4.97181
4.94397
4.91386
4.88156
4.84714
4.81067
4.77225
4.73195
4.68987
4.6461
4.60072
4.55383
4.50553
4.45592
4.40509
4.35314
4.30017
4.24628
4.19156
4.13613
4.08007
4.02349
3.96649
3.90916
3.85163
3.79397
3.73632
3.67877
3.62146
3.56451
3.50807
3.4523
3.39737
3.3435
3.29089
3.23977
3.19033
3.14274
3.09677
3.05287
0.047933
0.0650007
0.0811518
0.0935632
0.104039
0.113466
0.122298
0.130798
0.139136
0.147429
0.15576
0.164193
0.172778
0.181553
0.190551
0.199797
0.209316
0.219128
0.229254
0.239711
0.25052
0.261698
0.273266
0.285243
0.297649
0.310505
0.323834
0.337659
0.352004
0.366895
0.38236
0.398427
0.415126
0.432489
0.450548
0.469338
0.488897
0.509262
0.530471
0.552562
0.575571
0.599542
0.624517
0.650538
0.67765
0.705897
0.735321
0.765967
0.797878
0.831096
0.865662
0.901617
0.939
0.977848
1.0182
1.06008
1.10353
1.14859
1.19528
1.24362
1.29357
1.34515
1.39837
1.45323
1.50975
1.56789
1.62766
1.68904
1.75199
1.81649
1.88249
1.94997
2.01886
2.08911
2.16065
2.23343
2.30736
2.38236
2.45835
2.53523
2.61291
2.69128
2.7702
2.84955
2.92923
3.00914
3.08915
3.16917
3.24909
3.32881
3.40822
3.48724
3.56558
3.64305
3.7196
3.79512
3.86955
3.94278
4.01475
4.08537
4.15455
4.22223
4.2883
4.35268
4.4153
4.47609
4.53497
4.59189
4.64678
4.69959
4.75025
4.79872
4.84495
4.88889
4.9305
4.96973
5.00655
5.0409
5.07275
5.10207
5.12883
5.153
5.17455
5.19347
5.20973
5.22332
5.23422
5.2424
5.24788
5.25063
5.25067
5.24799
5.24261
5.23453
5.22378
5.21037
5.19433
5.17571
5.15453
5.13085
5.10471
5.07617
5.04529
5.01213
4.97677
4.93928
4.89974
4.85823
4.81484
4.76966
4.72278
4.67428
4.62428
4.57285
4.52011
4.46615
4.41108
4.35499
4.29798
4.24017
4.18165
4.12253
4.0629
4.00289
3.94259
3.88212
3.82158
3.7611
3.70081
3.64085
3.58135
3.52248
3.46443
3.40739
3.35158
3.29721
3.24446
3.1935
3.14411
3.09674
0.048817
0.0648675
0.0808727
0.0932129
0.103606
0.112929
0.121637
0.129993
0.138167
0.146276
0.154404
0.162617
0.170963
0.179484
0.188212
0.197176
0.206402
0.215914
0.225733
0.235881
0.246382
0.257258
0.268533
0.280231
0.292375
0.30499
0.318102
0.331741
0.345936
0.360719
0.376123
0.392182
0.408934
0.426416
0.444669
0.463734
0.483658
0.504487
0.526276
0.549055
0.572863
0.597751
0.62377
0.650969
0.679397
0.709101
0.740129
0.772526
0.806337
0.841605
0.878369
0.916669
0.956542
0.99802
1.04113
1.08591
1.13238
1.18056
1.23046
1.2821
1.33544
1.3905
1.44728
1.50575
1.56591
1.62774
1.69121
1.75629
1.82294
1.89113
1.96081
2.03192
2.1044
2.17819
2.25321
2.32939
2.40665
2.48488
2.56399
2.64388
2.72443
2.80553
2.88704
2.96882
3.05075
3.13271
3.21456
3.29619
3.37749
3.45833
3.53859
3.61797
3.69642
3.77391
3.85035
3.92568
3.99983
4.0727
4.14423
4.21433
4.28293
4.34996
4.41533
4.47896
4.54079
4.60075
4.65877
4.7148
4.76878
4.82064
4.87036
4.91787
4.96313
5.00611
5.04676
5.08505
5.12095
5.1544
5.18539
5.21389
5.23985
5.26327
5.28412
5.30237
5.31801
5.33102
5.34139
5.34909
5.35411
5.35645
5.35611
5.35308
5.34736
5.33897
5.32791
5.31419
5.29785
5.2789
5.25738
5.23332
5.20678
5.17778
5.1464
5.11269
5.0767
5.03853
4.99822
4.95587
4.91156
4.86537
4.81738
4.7677
4.71642
4.66362
4.60942
4.5539
4.49718
4.43936
4.38053
4.3208
4.26029
4.19909
4.13732
4.07508
4.01249
3.94966
3.8867
3.82375
3.76093
3.69838
3.63626
3.57472
3.51396
3.45416
3.39553
3.33828
3.28258
3.2286
3.17614
3.12565
0.0496149
0.0645369
0.0803036
0.0924986
0.102744
0.111903
0.12043
0.128587
0.136547
0.144426
0.152311
0.160267
0.168344
0.176585
0.185026
0.193697
0.202629
0.211847
0.221376
0.231243
0.241475
0.252102
0.263156
0.27467
0.286671
0.29918
0.312237
0.325877
0.340142
0.35507
0.370704
0.387088
0.404269
0.422293
0.441212
0.461076
0.48194
0.503858
0.526885
0.55107
0.576465
0.603122
0.631094
0.660434
0.69119