/*--------------------------------*- C++ -*----------------------------------*\
| =========                 |                                                 |
| \\      /  F ield         | OpenFOAM: The Open Source CFD Toolbox           |
|  \\    /   O peration     | Version:  2.2.x                                 |
|   \\  /    A nd           | Web:      www.OpenFOAM.org                      |
|    \\/     M anipulation  |                                                 |
\*---------------------------------------------------------------------------*/
FoamFile
{
    version     2.0;
    format      ascii;
    class       volScalarField;
    location    "700";
    object      nut;
}
// * * * * * * * * * * * * * * * * * * * * * * * * * * * * * * * * * * * * * //

dimensions      [0 2 -1 0 0 0 0];

internalField   nonuniform List<scalar> 
12225
(
3.09428e-05
3.71944e-05
4.0947e-05
4.3145e-05
4.43824e-05
4.5024e-05
4.52963e-05
4.53419e-05
4.52505e-05
4.50785e-05
4.48617e-05
4.46223e-05
4.43744e-05
4.41266e-05
4.38842e-05
4.36502e-05
4.34226e-05
4.32215e-05
0.000116613
6.9368e-05
5.1605e-05
4.24147e-05
3.71538e-05
3.39209e-05
3.18288e-05
3.04301e-05
2.94807e-05
2.88382e-05
2.84145e-05
2.81523e-05
2.80129e-05
2.79689e-05
2.80006e-05
2.80918e-05
2.82287e-05
2.8372e-05
0.000365112
0.000223242
0.000162457
0.000127914
0.000106039
9.1244e-05
8.07028e-05
7.28779e-05
6.68798e-05
6.21639e-05
5.838e-05
5.52943e-05
5.27448e-05
5.06159e-05
4.88214e-05
4.72908e-05
4.59537e-05
4.47838e-05
0.00064461
0.000479078
0.000378699
0.000313448
0.000268353
0.000235787
0.000211395
0.000192561
0.000177646
0.000165584
0.000155654
0.000147353
0.000140322
0.000134297
0.000129081
0.000124519
0.000120488
0.000116979
0.000789269
0.000696798
0.000611916
0.000542049
0.000486075
0.000441341
0.000405301
0.000375923
0.000351672
0.000331415
0.000314303
0.000299703
0.000287129
0.000276211
0.000266661
0.00025825
0.000250811
0.000244314
0.000836146
0.000802043
0.000758902
0.000713887
0.000670963
0.000631879
0.000597097
0.000566461
0.000539574
0.000515976
0.000495222
0.000476913
0.000460702
0.000446297
0.000433449
0.000421954
0.000411655
0.000402537
0.000848366
0.000838516
0.000822833
0.000802885
0.000780484
0.000757158
0.000733988
0.000711651
0.000690526
0.00067079
0.000652497
0.000635621
0.000620098
0.000605843
0.000592763
0.000580767
0.000569782
0.000559858
0.000850836
0.000847527
0.000841611
0.000833095
0.000822395
0.000810102
0.000796809
0.000783024
0.000769144
0.000755458
0.000742166
0.000729397
0.000717229
0.000705702
0.000694831
0.000684616
0.000675057
0.000666271
0.000851475
0.000850225
0.000848
0.000844577
0.000839911
0.000834107
0.000827352
0.000819869
0.000811881
0.000803586
0.000795151
0.000786714
0.000778378
0.000770224
0.00076231
0.00075468
0.00074737
0.000740512
0.000851641
0.00085103
0.00085015
0.000848867
0.000847085
0.000844763
0.000841907
0.000838557
0.00083478
0.000830651
0.000826252
0.000821657
0.000816937
0.000812153
0.000807357
0.000802595
0.000797909
0.000793407
0.000851672
0.000851219
0.000850723
0.000850137
0.000849415
0.000848519
0.000847423
0.000846116
0.000844598
0.00084288
0.000840982
0.000838925
0.000836736
0.00083444
0.000832064
0.000829634
0.000827174
0.000824754
0.000851674
0.000851249
0.000850836
0.000850423
0.000849995
0.000849538
0.000849038
0.000848483
0.000847866
0.000847182
0.000846429
0.000845608
0.000844724
0.000843781
0.000842787
0.000841749
0.000840677
0.000839605
0.000851671
0.000851248
0.000850846
0.000850463
0.000850095
0.000849737
0.000849385
0.000849033
0.000848679
0.000848317
0.000847946
0.000847562
0.000847166
0.000846756
0.000846332
0.000845895
0.000845448
0.000845007
0.000851668
0.000851243
0.000850841
0.00085046
0.000850099
0.000849755
0.000849428
0.000849115
0.000848814
0.000848523
0.000848242
0.000847968
0.000847701
0.000847439
0.000847181
0.000846927
0.00084668
0.000846448
0.000851666
0.000851239
0.000850835
0.000850452
0.00085009
0.000849746
0.00084942
0.00084911
0.000848815
0.000848534
0.000848266
0.00084801
0.000847765
0.000847531
0.000847306
0.00084709
0.000846885
0.0008467
0.000851665
0.000851236
0.000850831
0.000850447
0.000850083
0.000849737
0.000849409
0.000849098
0.000848802
0.00084852
0.000848252
0.000847996
0.000847752
0.00084752
0.000847297
0.000847085
0.000846885
0.000846706
0.000851664
0.000851235
0.000850828
0.000850443
0.000850078
0.000849731
0.000849402
0.000849089
0.000848791
0.000848508
0.000848238
0.000847981
0.000847736
0.000847501
0.000847278
0.000847064
0.000846863
0.000846684
0.000851664
0.000851234
0.000850827
0.000850441
0.000850076
0.000849728
0.000849398
0.000849085
0.000848786
0.000848502
0.000848231
0.000847973
0.000847726
0.000847491
0.000847266
0.000847051
0.000846849
0.000846669
0.000851664
0.000851235
0.000850828
0.000850442
0.000850076
0.000849729
0.000849399
0.000849085
0.000848786
0.000848501
0.000848229
0.00084797
0.000847723
0.000847486
0.00084726
0.000847044
0.000846839
0.000846657
0.000851665
0.000851236
0.00085083
0.000850444
0.000850079
0.000849731
0.000849401
0.000849086
0.000848785
0.000848497
0.000848222
0.000847958
0.000847703
0.000847458
0.000847222
0.000846994
0.000846776
0.000846579
0.000851666
0.000851238
0.000850832
0.000850446
0.000850078
0.000849725
0.000849384
0.000849054
0.000848731
0.000848414
0.0008481
0.000847787
0.000847476
0.000847163
0.000846849
0.000846534
0.000846219
0.000845917
0.000851667
0.000851237
0.000850823
0.000850417
0.00085001
0.000849592
0.000849154
0.000848688
0.000848188
0.000847651
0.000847072
0.000846453
0.000845792
0.000845092
0.000844356
0.000843587
0.000842792
0.00084199
0.000851661
0.000851195
0.000850681
0.000850075
0.000849336
0.000848431
0.000847339
0.000846051
0.000844568
0.000842899
0.000841061
0.000839072
0.000836954
0.000834729
0.000832419
0.000830045
0.00082763
0.000825216
0.00085157
0.000850737
0.000849405
0.000847416
0.000844692
0.000841228
0.000837081
0.000832341
0.000827114
0.000821512
0.00081564
0.000809592
0.000803451
0.000797286
0.000791152
0.000785096
0.000779158
0.00077341
0.000850707
0.000847137
0.000840905
0.000832091
0.00082112
0.000808562
0.000794981
0.000780865
0.000766598
0.000752463
0.000738664
0.000725335
0.000712561
0.000700389
0.000688839
0.000677915
0.000667609
0.000657961
0.000844113
0.000825224
0.00079853
0.000767731
0.00073565
0.000704134
0.000674224
0.000646406
0.000620837
0.000597494
0.000576258
0.000556968
0.000539449
0.000523528
0.000509044
0.000495847
0.000483807
0.000472852
0.000803425
0.000727158
0.00065272
0.000587766
0.000532944
0.000487161
0.000448906
0.000416762
0.000389557
0.00036636
0.000346432
0.000329192
0.000314179
0.000301023
0.00028943
0.000279163
0.00027003
0.000261897
0.000625871
0.000466125
0.000370237
0.000306332
0.000260964
0.000227482
0.000201986
0.00018206
0.000166156
0.000153238
0.000142589
0.000133696
0.000126188
0.000119787
0.000114283
0.000109517
0.000105368
0.000101758
0.000254186
0.000158464
0.000118168
9.48476e-05
7.9852e-05
6.96492e-05
6.24037e-05
5.70868e-05
5.30852e-05
5.0013e-05
4.76161e-05
4.57216e-05
4.42082e-05
4.29893e-05
4.20012e-05
4.11969e-05
4.05408e-05
4.00126e-05
3.69327e-05
4.20256e-05
4.57632e-05
4.86729e-05
5.10793e-05
5.30433e-05
5.4625e-05
5.58814e-05
5.68653e-05
5.76232e-05
5.81955e-05
5.86165e-05
5.89149e-05
5.91147e-05
5.92355e-05
5.92935e-05
5.9302e-05
5.9271e-05
3.68315e-06
9.72528e-06
1.08753e-05
1.16837e-05
1.24699e-05
1.31972e-05
1.39875e-05
1.49874e-05
1.60751e-05
1.72135e-05
1.83662e-05
1.9513e-05
2.06444e-05
2.17563e-05
2.28469e-05
2.39159e-05
2.49635e-05
2.59906e-05
2.69982e-05
2.79877e-05
2.89603e-05
2.99174e-05
3.08604e-05
3.17905e-05
3.27093e-05
3.36178e-05
3.45173e-05
3.54091e-05
3.62942e-05
3.71739e-05
3.80491e-05
3.89212e-05
3.97912e-05
4.06604e-05
4.15302e-05
4.24021e-05
4.32781e-05
4.41604e-05
4.50515e-05
4.5955e-05
4.68751e-05
4.78173e-05
4.87717e-05
4.97303e-05
5.06928e-05
5.16593e-05
5.26299e-05
5.36047e-05
5.45836e-05
5.55666e-05
5.65537e-05
5.75445e-05
5.85391e-05
5.95372e-05
6.05387e-05
6.15431e-05
6.25504e-05
6.35602e-05
6.45721e-05
6.55859e-05
6.66011e-05
6.76175e-05
6.86346e-05
6.9652e-05
7.06692e-05
7.16858e-05
7.27014e-05
7.37154e-05
7.47273e-05
7.57368e-05
7.67431e-05
7.77458e-05
7.87443e-05
7.9738e-05
8.07264e-05
8.17089e-05
8.26847e-05
8.36534e-05
8.46143e-05
8.55666e-05
8.65097e-05
8.74428e-05
8.83653e-05
8.92762e-05
9.01749e-05
9.10605e-05
9.19322e-05
9.27892e-05
9.36304e-05
9.44552e-05
9.52626e-05
9.60517e-05
9.68219e-05
9.75724e-05
9.83028e-05
9.90128e-05
9.97025e-05
0.000100373
0.000101025
0.000101663
0.000102288
0.000102886
0.000103455
0.000103996
0.000104508
0.000104991
0.000105445
0.000105868
0.000106262
0.000106625
0.000106958
0.000107259
0.000107528
0.000107766
0.000107972
0.000108145
0.000108287
0.000108395
0.000108471
0.000108515
0.000108526
0.000108505
0.000108451
0.000108366
0.000108248
0.000108099
0.000107919
0.000107708
0.000107467
0.000107197
0.000106897
0.000106569
0.000106214
0.000105832
0.000105424
0.000104991
0.000104534
0.000104054
0.000103552
0.000103029
0.000102487
0.000101925
0.000101346
0.00010075
0.000100139
9.9514e-05
9.88759e-05
9.82259e-05
9.75655e-05
9.6896e-05
9.62179e-05
9.55324e-05
9.48411e-05
9.41453e-05
9.34453e-05
9.2742e-05
9.20374e-05
9.13318e-05
9.06259e-05
8.99215e-05
8.92182e-05
8.85169e-05
8.78207e-05
8.71272e-05
8.64349e-05
8.57526e-05
8.50807e-05
8.44394e-05
8.39794e-05
8.36089e-05
8.32595e-05
8.2924e-05
8.26008e-05
8.22871e-05
8.19792e-05
8.16675e-05
8.13401e-05
8.09451e-05
8.04458e-05
7.93172e-05
5.36833e-06
2.53112e-05
4.96762e-05
6.60762e-05
7.47556e-05
7.94726e-05
8.24463e-05
8.48649e-05
8.73836e-05
9.02118e-05
9.3384e-05
9.68795e-05
0.000100667
0.000104715
0.000108997
0.00011349
0.000118171
0.000123023
0.000128026
0.000133168
0.000138433
0.000143811
0.000149291
0.000154865
0.000160524
0.000166263
0.000172075
0.000177956
0.0001839
0.000189905
0.000195967
0.000202082
0.000208246
0.000214457
0.00022071
0.000227001
0.000233327
0.000239683
0.000246065
0.000252473
0.000258908
0.000265377
0.000271902
0.000278497
0.000285171
0.000291931
0.000298779
0.000305722
0.000312761
0.000319899
0.000327139
0.000334484
0.000341933
0.00034949
0.000357155
0.000364928
0.000372811
0.000380804
0.000388907
0.00039712
0.000405442
0.000413873
0.000422411
0.000431056
0.000439806
0.00044866
0.000457616
0.000466673
0.000475827
0.000485077
0.000494421
0.000503857
0.000513381
0.000522992
0.000532686
0.000542461
0.000552315
0.000562243
0.000572244
0.000582314
0.000592449
0.000602646
0.000612899
0.000623205
0.000633557
0.000643949
0.000654373
0.000664822
0.000675283
0.000685746
0.000696197
0.000706621
0.000716999
0.00072731
0.000737532
0.000747637
0.000757595
0.000767369
0.000776918
0.000786199
0.000794866
0.00080331
0.000811576
0.000819666
0.000827575
0.000835296
0.000842823
0.000850147
0.000857263
0.000864162
0.000870838
0.000877282
0.000883488
0.000889448
0.000895155
0.000900602
0.000905781
0.000910686
0.000915312
0.000919652
0.000923701
0.000927455
0.00093091
0.000934063
0.000936911
0.000939451
0.000941683
0.000943604
0.000945216
0.000946518
0.000947512
0.000948203
0.000948592
0.000948685
0.000948485
0.000947998
0.00094723
0.000946189
0.000944883
0.000943321
0.000941512
0.000939465
0.000937189
0.000934696
0.000931998
0.000929109
0.000926037
0.000922794
0.000919394
0.000915853
0.000912182
0.00090839
0.000904494
0.000900511
0.000896451
0.000892323
0.000888146
0.000883938
0.000879702
0.000875452
0.000871215
0.000866988
0.000862782
0.000858638
0.000854539
0.00085045
0.00084637
0.000842096
0.00083659
0.000829974
0.000823086
0.000816158
0.000809258
0.000802404
0.000795593
0.000788813
0.000782002
0.000775103
0.000767367
0.000754181
6.46508e-06
4.21024e-05
8.17073e-05
0.000109045
0.0001266
0.000138008
0.000146083
0.000152692
0.000158935
0.000165362
0.000172199
0.00017951
0.000187291
0.000195511
0.000204132
0.000213115
0.000222425
0.000232029
0.000241895
0.000251998
0.000262313
0.000272819
0.000283497
0.000294332
0.000305311
0.000316422
0.000327656
0.000339006
0.000350466
0.000362032
0.000373699
0.000385466
0.000397331
0.000409294
0.000421354
0.000433514
0.000445775
0.000458141
0.000470619
0.000483215
0.000495941
0.000508809
0.000521834
0.000535029
0.000548406
0.000561973
0.000575738
0.000589708
0.000603888
0.000618285
0.000632902
0.000647744
0.000662815
0.000678115
0.000693649
0.000709417
0.000725421
0.000741661
0.000758136
0.000774846
0.000791791
0.000808967
0.000826372
0.000844005
0.00086186
0.000879935
0.000898225
0.000916725
0.000935429
0.000954333
0.000973429
0.000992711
0.00101217
0.00103181
0.0010516
0.00107156
0.00109166
0.0011119
0.00113227
0.00115277
0.00117337
0.00119408
0.00121487
0.00123573
0.00125666
0.00127763
0.00129863
0.00131964
0.00134064
0.00136159
0.00138248
0.00140327
0.00142392
0.00144441
0.00146468
0.00148469
0.00150439
0.00152373
0.00154265
0.001561
0.00157868
0.00159594
0.00161282
0.00162932
0.00164545
0.00166117
0.00167649
0.00169139
0.00170584
0.00171985
0.00173339
0.00174645
0.00175902
0.00177107
0.0017826
0.00179359
0.00180403
0.0018139
0.00182319
0.00183189
0.00183999
0.00184748
0.00185435
0.00186059
0.0018662
0.00187117
0.00187551
0.00187919
0.00188224
0.00188464
0.0018864
0.00188752
0.00188801
0.00188789
0.00188715
0.0018858
0.00188387
0.00188136
0.00187829
0.00187467
0.00187054
0.00186589
0.00186076
0.00185516
0.00184912
0.00184267
0.00183582
0.00182861
0.00182104
0.00181317
0.001805
0.00179657
0.0017879
0.00177903
0.00176998
0.00176077
0.00175143
0.00174201
0.00173251
0.00172296
0.00171342
0.00170388
0.00169437
0.00168494
0.00167561
0.00166631
0.001657
0.00164748
0.00163698
0.00162547
0.00161359
0.00160163
0.00158973
0.00157794
0.00156626
0.00155464
0.0015429
0.00153065
0.00151632
0.00149297
7.26584e-06
5.53665e-05
0.000106942
0.00014468
0.000170874
0.000189309
0.000203096
0.000214458
0.000224832
0.000235053
0.000245549
0.00025651
0.00026799
0.000279986
0.000292465
0.000305385
0.000318702
0.000332377
0.00034637
0.000360649
0.000375185
0.000389951
0.000404927
0.000420095
0.00043544
0.000450951
0.00046662
0.000482439
0.000498405
0.000514516
0.000530772
0.000547174
0.000563725
0.000580429
0.000597291
0.000614319
0.000631521
0.000648906
0.000666485
0.00068427
0.000702273
0.000720508
0.000738987
0.000757724
0.00077673
0.000796014
0.000815586
0.000835454
0.000855627
0.00087611
0.000896908
0.000918028
0.000939472
0.000961244
0.000983346
0.00100578
0.00102854
0.00105164
0.00107507
0.00109883
0.00112291
0.00114731
0.00117204
0.00119707
0.00122241
0.00124805
0.00127398
0.0013002
0.00132668
0.00135343
0.00138044
0.00140768
0.00143515
0.00146284
0.00149073
0.00151881
0.00154706
0.00157547
0.00160402
0.0016327
0.00166149
0.00169037
0.00171932
0.00174832
0.00177735
0.00180638
0.0018354
0.00186438
0.00189327
0.00192206
0.0019507
0.00197917
0.0020074
0.00203537
0.00206302
0.0020903
0.00211716
0.00214355
0.00216943
0.00219452
0.00221897
0.00224287
0.00226625
0.00228911
0.00231143
0.00233321
0.00235442
0.00237504
0.00239506
0.00241446
0.00243322
0.00245132
0.00246874
0.00248546
0.00250147
0.00251673
0.00253124
0.00254497
0.00255791
0.00257004
0.00258135
0.00259182
0.00260144
0.0026102
0.00261809
0.0026251
0.00263122
0.00263645
0.00264079
0.00264424
0.0026468
0.00264846
0.00264925
0.00264917
0.00264823
0.00264644
0.00264381
0.00264037
0.00263613
0.00263112
0.00262536
0.00261887
0.00261168
0.00260382
0.00259532
0.00258622
0.00257654
0.00256631
0.00255558
0.00254438
0.00253274
0.00252071
0.00250832
0.00249561
0.00248262
0.00246938
0.00245594
0.00244235
0.00242864
0.00241482
0.00240099
0.00238717
0.00237337
0.00235964
0.00234602
0.00233247
0.00231897
0.00230535
0.00229119
0.00227642
0.00226138
0.00224632
0.00223141
0.00221671
0.00220225
0.00218796
0.00217362
0.00215866
0.00214133
0.00211601
8.24435e-06
6.33608e-05
0.000126321
0.000174559
0.000209541
0.000235196
0.000254904
0.000271175
0.000285727
0.000299641
0.000313547
0.000327772
0.000342461
0.000357658
0.000373356
0.000389524
0.000406122
0.000423107
0.00044044
0.000458086
0.000476014
0.000494198
0.000512616
0.000531252
0.000550091
0.000569123
0.000588342
0.000607743
0.000627325
0.00064709
0.000667039
0.000687177
0.000707512
0.00072805
0.000748801
0.000769774
0.000790983
0.000812437
0.000834151
0.000856138
0.00087841
0.000900982
0.000923865
0.000947073
0.000970616
0.000994506
0.00101875
0.00104336
0.00106835
0.00109371
0.00111946
0.0011456
0.00117213
0.00119907
0.0012264
0.00125412
0.00128225
0.00131078
0.0013397
0.00136901
0.00139871
0.00142879
0.00145924
0.00149006
0.00152124
0.00155276
0.00158462
0.00161679
0.00164928
0.00168207
0.00171513
0.00174845
0.00178202
0.00181582
0.00184983
0.00188402
0.00191838
0.00195289
0.00198752
0.00202226
0.00205707
0.00209193
0.00212683
0.00216173
0.0021966
0.00223142
0.00226616
0.00230079
0.00233527
0.00236957
0.00240365
0.00243748
0.002471
0.00250417
0.00253695
0.00256928
0.00260111
0.0026324
0.00266308
0.00269295
0.00272215
0.00275072
0.00277868
0.00280603
0.00283275
0.00285882
0.00288423
0.00290896
0.00293299
0.0029563
0.00297885
0.00300064
0.00302164
0.00304183
0.00306118
0.00307968
0.00309729
0.003114
0.00312978
0.00314462
0.00315849
0.00317139
0.00318328
0.00319416
0.00320402
0.00321284
0.00322061
0.00322732
0.00323297
0.00323756
0.00324108
0.00324353
0.00324493
0.00324527
0.00324457
0.00324284
0.00324009
0.00323635
0.00323163
0.00322596
0.00321935
0.00321185
0.00320348
0.00319427
0.00318425
0.00317347
0.00316196
0.00314975
0.0031369
0.00312344
0.00310942
0.00309488
0.00307986
0.00306442
0.00304861
0.00303247
0.00301603
0.00299938
0.00298256
0.0029656
0.00294858
0.00293153
0.0029145
0.00289754
0.00288068
0.00286393
0.00284727
0.00283062
0.00281378
0.00279667
0.00277949
0.00276242
0.00274561
0.00272916
0.00271312
0.00269744
0.00268192
0.00266603
0.0026482
0.0026247
9.16855e-06
6.83789e-05
0.000141072
0.000199283
0.000242939
0.000275855
0.000301578
0.000322836
0.000341573
0.000359086
0.00037619
0.000393358
0.000410839
0.000428747
0.000447118
0.000465944
0.0004852
0.000504851
0.000524861
0.000545198
0.000565832
0.000586739
0.000607897
0.000629292
0.000650911
0.000672747
0.000694794
0.00071705
0.000739517
0.000762197
0.000785096
0.000808221
0.00083158
0.000855184
0.000879043
0.00090317
0.000927578
0.000952279
0.000977287
0.00100262
0.00102828
0.00105429
0.00108067
0.00110741
0.00113454
0.00116207
0.00118999
0.00121834
0.0012471
0.00127629
0.00130591
0.00133598
0.00136648
0.00139742
0.00142881
0.00146064
0.00149292
0.00152563
0.00155877
0.00159235
0.00162635
0.00166076
0.00169558
0.00173079
0.00176639
0.00180235
0.00183867
0.00187533
0.00191231
0.0019496
0.00198717
0.00202501
0.00206309
0.00210138
0.00213988
0.00217854
0.00221735
0.00225628
0.0022953
0.00233438
0.0023735
0.00241262
0.00245172
0.00249077
0.00252973
0.00256858
0.00260729
0.00264581
0.00268413
0.0027222
0.00275998
0.00279745
0.00283456
0.00287126
0.00290751
0.00294327
0.00297848
0.00301311
0.00304703
0.00308018
0.00311264
0.00314444
0.0031756
0.00320609
0.00323592
0.00326505
0.00329348
0.00332117
0.00334812
0.00337429
0.00339967
0.00342423
0.00344794
0.00347078
0.00349273
0.00351376
0.00353385
0.00355296
0.00357107
0.00358817
0.00360422
0.0036192
0.0036331
0.0036459
0.00365757
0.00366811
0.00367749
0.00368571
0.00369275
0.0036986
0.00370327
0.00370674
0.00370903
0.00371014
0.00371007
0.00370882
0.00370643
0.00370289
0.00369823
0.00369248
0.00368565
0.00367778
0.00366889
0.00365902
0.00364821
0.00363649
0.00362391
0.0036105
0.00359631
0.00358139
0.00356579
0.00354956
0.00353274
0.00351539
0.00349757
0.00347935
0.00346075
0.00344187
0.00342275
0.00340345
0.00338403
0.00336455
0.00334506
0.00332562
0.00330628
0.00328706
0.00326798
0.00324902
0.00323009
0.00321117
0.00319237
0.00317383
0.00315569
0.00313808
0.00312107
0.00310468
0.00308875
0.00307286
0.00305579
0.00303524
9.95755e-06
7.16219e-05
0.000152213
0.000219415
0.000271299
0.000311305
0.000342997
0.000369239
0.000392142
0.000413179
0.000433328
0.000453201
0.000473158
0.000493394
0.000514
0.000535007
0.000556412
0.000578197
0.000600335
0.0006228
0.000645567
0.000668614
0.000691924
0.000715483
0.00073928
0.000763311
0.000787572
0.000812062
0.000836785
0.000861746
0.000886951
0.000912409
0.000938129
0.000964124
0.000990406
0.00101699
0.00104388
0.0010711
0.00109866
0.00112657
0.00115485
0.00118352
0.00121257
0.00124203
0.00127191
0.00130221
0.00133295
0.00136413
0.00139576
0.00142785
0.0014604
0.00149342
0.00152691
0.00156087
0.00159529
0.00163019
0.00166555
0.00170137
0.00173764
0.00177437
0.00181154
0.00184913
0.00188715
0.00192558
0.0019644
0.00200359
0.00204315
0.00208306
0.00212328
0.00216381
0.00220462
0.00224568
0.00228698
0.00232848
0.00237016
0.00241198
0.00245393
0.00249596
0.00253805
0.00258016
0.00262227
0.00266434
0.00270634
0.00274823
0.00278998
0.00283157
0.00287295
0.0029141
0.00295498
0.00299557
0.00303582
0.00307571
0.00311519
0.00315424
0.00319281
0.00323085
0.00326833
0.00330521
0.00334132
0.00337671
0.00341144
0.00344552
0.00347894
0.00351169
0.00354377
0.00357516
0.00360583
0.00363576
0.00366493
0.00369332
0.00372091
0.00374766
0.00377356
0.00379857
0.00382267
0.00384583
0.00386802
0.00388922
0.00390938
0.00392849
0.00394652
0.00396345
0.00397924
0.00399387
0.00400733
0.00401959
0.00403063
0.00404043
0.00404898
0.00405626
0.00406227
0.004067
0.00407044
0.0040726
0.00407347
0.00407306
0.00407138
0.00406845
0.00406428
0.00405889
0.0040523
0.00404454
0.00403564
0.00402563
0.00401455
0.00400243
0.00398932
0.00397527
0.00396031
0.00394449
0.00392788
0.00391052
0.00389248
0.00387381
0.00385458
0.00383484
0.00381466
0.00379411
0.00377325
0.00375214
0.00373085
0.00370946
0.00368801
0.00366659
0.00364524
0.00362402
0.00360298
0.00358212
0.00356144
0.00354095
0.00352075
0.00350096
0.00348173
0.00346319
0.00344546
0.00342861
0.00341256
0.00339702
0.0033811
0.0033634
1.06232e-05
7.35899e-05
0.000160387
0.000235445
0.000294909
0.000341654
0.000379137
0.000410268
0.000437269
0.000461746
0.000484813
0.000507208
0.000529398
0.00055166
0.000574152
0.000596949
0.000620082
0.000643554
0.000667354
0.000691465
0.00071587
0.000740553
0.000765499
0.000790698
0.000816142
0.000841828
0.000867755
0.000893924
0.000920339
0.000947005
0.000973933
0.00100113
0.00102861
0.00105638
0.00108445
0.00111285
0.00114157
0.00117064
0.00120007
0.00122988
0.00126007
0.00129066
0.00132166
0.00135308
0.00138494
0.00141724
0.00144999
0.0014832
0.00151688
0.00155102
0.00158565
0.00162076
0.00165634
0.00169241
0.00172896
0.00176599
0.0018035
0.00184148
0.00187992
0.00191881
0.00195816
0.00199794
0.00203815
0.00207877
0.00211979
0.00216119
0.00220295
0.00224505
0.00228748
0.0023302
0.0023732
0.00241645
0.00245991
0.00250358
0.0025474
0.00259136
0.00263541
0.00267953
0.00272368
0.00276783
0.00281194
0.00285598
0.00289991
0.00294369
0.0029873
0.00303069
0.00307384
0.00311671
0.00315928
0.00320151
0.00324337
0.00328484
0.00332588
0.00336647
0.00340656
0.00344612
0.00348511
0.00352347
0.00356112
0.00359811
0.00363448
0.00367022
0.00370533
0.0037398
0.00377362
0.00380677
0.00383922
0.00387095
0.00390194
0.00393217
0.00396162
0.00399025
0.00401803
0.00404495
0.00407097
0.00409605
0.00412017
0.00414329
0.00416538
0.00418642
0.00420636
0.00422518
0.00424285
0.00425935
0.00427464
0.00428869
0.00430149
0.00431299
0.00432319
0.00433207
0.00433961
0.0043458
0.00435064
0.00435411
0.0043562
0.00435692
0.00435627
0.00435427
0.00435093
0.00434626
0.00434027
0.00433299
0.00432446
0.0043147
0.00430374
0.00429162
0.0042784
0.0042641
0.00424879
0.0042325
0.00421531
0.00419726
0.00417842
0.00415885
0.00413861
0.00411777
0.00409639
0.00407455
0.00405232
0.00402977
0.00400696
0.00398399
0.00396091
0.00393781
0.00391476
0.00389182
0.00386905
0.00384651
0.00382424
0.0038023
0.00378076
0.00375976
0.00373945
0.00372
0.00370155
0.00368423
0.00366803
0.0036528
0.00363788
0.00362244
1.11819e-05
7.45853e-05
0.000166078
0.000247816
0.000314095
0.000367103
0.000410084
0.000445921
0.000476891
0.000504694
0.000530551
0.000555305
0.000579522
0.000603561
0.000627646
0.000651903
0.0006764
0.000701169
0.000726219
0.000751547
0.000777145
0.000803005
0.000829117
0.000855476
0.000882076
0.000908916
0.000935998
0.000963324
0.000990899
0.00101873
0.00104683
0.0010752
0.00110386
0.00113282
0.00116209
0.00119169
0.00122162
0.00125191
0.00128256
0.0013136
0.00134502
0.00137685
0.0014091
0.00144177
0.00147488
0.00150844
0.00154246
0.00157693
0.00161188
0.0016473
0.0016832
0.00171958
0.00175644
0.00179379
0.00183162
0.00186993
0.00190872
0.00194799
0.00198772
0.00202791
0.00206855
0.00210962
0.00215113
0.00219306
0.00223538
0.00227808
0.00232116
0.00236458
0.00240832
0.00245237
0.00249669
0.00254126
0.00258606
0.00263105
0.0026762
0.00272148
0.00276685
0.00281229
0.00285774
0.00290319
0.00294857
0.00299387
0.00303904
0.00308404
0.00312884
0.00317341
0.0032177
0.00326169
0.00330535
0.00334864
0.00339155
0.00343405
0.00347611
0.00351771
0.00355881
0.00359939
0.00363942
0.00367881
0.0037176
0.0037558
0.00379343
0.00383049
0.00386696
0.00390284
0.00393811
0.00397274
0.00400672
0.00404002
0.00407262
0.0041045
0.00413562
0.00416597
0.0041955
0.0042242
0.00425203
0.00427895
0.00430494
0.00432994
0.00435394
0.00437689
0.00439875
0.0044195
0.0044391
0.00445752
0.00447473
0.00449069
0.00450536
0.00451872
0.00453073
0.00454138
0.00455065
0.00455851
0.00456496
0.00456997
0.00457353
0.00457564
0.00457629
0.0045755
0.00457328
0.00456961
0.00456453
0.00455804
0.00455019
0.004541
0.0045305
0.00451872
0.00450572
0.00449153
0.00447621
0.0044598
0.00444236
0.00442396
0.00440465
0.00438449
0.00436355
0.00434191
0.00431963
0.00429679
0.00427346
0.00424972
0.00422565
0.00420133
0.00417684
0.00415226
0.00412768
0.00410318
0.00407884
0.00405474
0.00403095
0.00400756
0.00398466
0.00396239
0.00394094
0.00392046
0.00390117
0.0038832
0.00386666
0.00385145
0.00383713
0.00382319
1.16477e-05
7.48273e-05
0.000169686
0.000256944
0.000329202
0.000387904
0.000435997
0.000476274
0.000511019
0.000541988
0.000570479
0.000597424
0.000623472
0.000649058
0.00067447
0.000699888
0.00072542
0.000751129
0.000777047
0.000803189
0.00082956
0.000856161
0.000882989
0.000910043
0.000937323
0.00096483
0.000992566
0.00102054
0.00104875
0.00107721
0.00110593
0.00113492
0.0011642
0.00119376
0.00122363
0.00125383
0.00128435
0.00131523
0.00134646
0.00137807
0.00141006
0.00144245
0.00147525
0.00150847
0.00154212
0.00157621
0.00161074
0.00164574
0.00168119
0.00171711
0.00175351
0.00179038
0.00182773
0.00186556
0.00190387
0.00194265
0.00198192
0.00202165
0.00206186
0.00210253
0.00214365
0.00218522
0.00222723
0.00226966
0.0023125
0.00235574
0.00239936
0.00244335
0.00248767
0.00253231
0.00257725
0.00262246
0.00266792
0.00271358
0.00275943
0.00280542
0.00285152
0.0028977
0.00294391
0.00299011
0.00303628
0.00308235
0.0031283
0.00317408
0.00321965
0.00326498
0.00331002
0.00335475
0.00339914
0.00344315
0.00348677
0.00352997
0.00357272
0.00361502
0.00365683
0.00369813
0.00373889
0.00377913
0.00381885
0.00385807
0.00389679
0.00393499
0.00397267
0.00400981
0.00404639
0.00408239
0.00411778
0.00415255
0.00418667
0.00422011
0.00425284
0.00428484
0.00431608
0.00434652
0.00437614
0.00440489
0.00443274
0.00445965
0.00448557
0.00451047
0.00453431
0.00455705
0.00457866
0.0045991
0.00461833
0.00463632
0.004653
0.00466835
0.00468234
0.00469493
0.0047061
0.00471583
0.00472411
0.00473088
0.00473613
0.00473985
0.00474205
0.00474272
0.00474186
0.00473947
0.00473558
0.00473018
0.00472331
0.00471499
0.00470525
0.00469412
0.00468165
0.00466787
0.00465284
0.00463661
0.00461922
0.00460075
0.00458124
0.00456077
0.00453941
0.00451723
0.00449429
0.00447068
0.00444648
0.00442176
0.00439662
0.00437114
0.00434541
0.00431952
0.00429356
0.00426763
0.00424182
0.00421622
0.00419095
0.00416609
0.00414178
0.00411817
0.00409545
0.00407381
0.00405347
0.00403463
0.00401743
0.00400188
0.00398764
0.0039744
1.20318e-05
7.44869e-05
0.000171557
0.000263215
0.00034058
0.000404332
0.000457069
0.00050144
0.000539694
0.000573608
0.000604534
0.00063347
0.000661133
0.000688028
0.000714501
0.000740782
0.000767023
0.000793318
0.000819726
0.000846282
0.000873006
0.000899908
0.000926996
0.000954274
0.000981746
0.00100942
0.00103729
0.00106538
0.00109369
0.00112223
0.00115101
0.00118003
0.00120932
0.00123889
0.00126874
0.0012989
0.00132937
0.00136017
0.00139131
0.00142281
0.00145467
0.00148692
0.00151955
0.00155259
0.00158604
0.00161991
0.00165422
0.00168897
0.00172416
0.00175981
0.00179593
0.00183251
0.00186956
0.00190709
0.00194509
0.00198357
0.00202254
0.00206198
0.00210191
0.0021423
0.00218317
0.00222451
0.0022663
0.00230854
0.00235122
0.00239433
0.00243786
0.00248178
0.00252608
0.00257075
0.00261575
0.00266106
0.00270667
0.00275252
0.00279861
0.00284488
0.0028913
0.00293784
0.00298445
0.0030311
0.00307772
0.00312429
0.00317075
0.00321707
0.00326318
0.00330906
0.00335466
0.00339995
0.00344489
0.00348945
0.00353361
0.00357735
0.00362064
0.00366348
0.00370584
0.00374771
0.00378916
0.00383019
0.0038708
0.00391099
0.00395074
0.00399005
0.0040289
0.00406727
0.00410513
0.00414246
0.00417924
0.00421546
0.00425107
0.00428606
0.00432039
0.00435404
0.00438698
0.00441918
0.0044506
0.00448121
0.00451096
0.0045398
0.00456769
0.00459459
0.00462047
0.00464528
0.00466898
0.00469153
0.00471289
0.00473303
0.00475186
0.00476934
0.00478544
0.00480013
0.00481338
0.00482515
0.00483542
0.00484415
0.00485131
0.00485689
0.00486087
0.00486325
0.00486403
0.0048632
0.00486076
0.00485673
0.00485113
0.00484397
0.00483528
0.00482509
0.00481343
0.00480036
0.0047859
0.00477012
0.00475306
0.00473479
0.00471536
0.00469485
0.00467331
0.00465083
0.00462747
0.00460332
0.00457847
0.00455299
0.00452698
0.00450053
0.00447372
0.00444667
0.00441947
0.00439223
0.00436504
0.00433803
0.00431131
0.004285
0.00425925
0.00423423
0.00421013
0.00418718
0.00416561
0.00414565
0.00412748
0.00411117
0.00409649
0.00408323
1.23438e-05
7.37018e-05
0.000171991
0.000266989
0.000348566
0.000416663
0.000473494
0.000521527
0.000562938
0.000599499
0.00063259
0.000663255
0.000692268
0.000720191
0.000747422
0.000774239
0.000800834
0.000827335
0.000853827
0.000880366
0.000906988
0.000933718
0.000960572
0.000987562
0.0010147
0.00104199
0.00106944
0.00109707
0.00112488
0.00115289
0.0011811
0.00120953
0.00123818
0.00126708
0.00129624