/*--------------------------------*- C++ -*----------------------------------*\
| =========                 |                                                 |
| \\      /  F ield         | OpenFOAM: The Open Source CFD Toolbox           |
|  \\    /   O peration     | Version:  2.2.x                                 |
|   \\  /    A nd           | Web:      www.OpenFOAM.org                      |
|    \\/     M anipulation  |                                                 |
\*---------------------------------------------------------------------------*/
FoamFile
{
    version     2.0;
    format      ascii;
    class       volScalarField;
    location    "700";
    object      p;
}
// * * * * * * * * * * * * * * * * * * * * * * * * * * * * * * * * * * * * * //

dimensions      [0 2 -2 0 0 0 0];

internalField   nonuniform List<scalar> 
12225
(
-2.3508
-5.05562
-5.90353
-6.14316
-6.3073
-6.44862
-6.56259
-6.65724
-6.74103
-6.81823
-6.89079
-6.95996
-7.02674
-7.09184
-7.15561
-7.2172
-7.27331
-7.23998
-6.13928
-6.49417
-6.60521
-6.55991
-6.56691
-6.61589
-6.67439
-6.73417
-6.7951
-6.85686
-6.91874
-6.98036
-7.04169
-7.10282
-7.16383
-7.22481
-7.29043
-7.40534
-5.98638
-5.8314
-6.03338
-6.16813
-6.29158
-6.41731
-6.53001
-6.62817
-6.71629
-6.7975
-6.87347
-6.94543
-7.01441
-7.08132
-7.14703
-7.21298
-7.28436
-7.38018
-5.9019
-5.89086
-6.16359
-6.33198
-6.44387
-6.54504
-6.63459
-6.71302
-6.78466
-6.85236
-6.91737
-6.98048
-7.04233
-7.10351
-7.16477
-7.2276
-7.29583
-7.37856
-5.93824
-5.98732
-6.19977
-6.33648
-6.42928
-6.5186
-6.60355
-6.68172
-6.755
-6.82507
-6.89267
-6.95827
-7.02236
-7.08549
-7.14842
-7.21237
-7.27963
-7.35282
-6.01227
-6.06276
-6.22334
-6.34703
-6.43999
-6.52906
-6.61407
-6.69258
-6.76586
-6.83546
-6.90225
-6.96679
-7.02964
-7.09138
-7.15267
-7.21437
-7.27759
-7.34233
-6.07768
-6.11974
-6.24685
-6.36082
-6.45211
-6.53789
-6.61964
-6.69579
-6.76726
-6.83533
-6.90077
-6.96411
-7.0258
-7.0863
-7.14606
-7.20552
-7.26497
-7.32313
-6.12898
-6.16574
-6.27231
-6.37646
-6.46408
-6.54635
-6.62516
-6.69938
-6.76951
-6.8365
-6.90099
-6.96339
-7.02409
-7.0834
-7.14163
-7.19895
-7.25528
-7.30905
-6.17246
-6.20553
-6.29634
-6.39125
-6.47486
-6.55388
-6.63002
-6.70237
-6.77113
-6.83698
-6.90042
-6.9618
-7.02139
-7.07944
-7.13611
-7.1914
-7.24505
-7.2955
-6.21769
-6.24702
-6.32329
-6.40847
-6.48731
-6.56265
-6.63573
-6.70584
-6.77289
-6.8373
-6.89942
-6.95951
-7.01775
-7.07428
-7.12915
-7.18223
-7.23317
-7.28063
-6.26385
-6.28934
-6.35287
-6.42825
-6.50156
-6.57273
-6.64236
-6.7098
-6.77476
-6.83739
-6.89789
-6.9564
-7.01301
-7.06775
-7.12058
-7.17131
-7.21959
-7.26434
-6.30996
-6.33173
-6.38445
-6.45034
-6.51753
-6.58409
-6.64989
-6.71428
-6.77678
-6.83729
-6.89584
-6.95247
-7.00716
-7.05987
-7.1105
-7.15882
-7.20455
-7.24685
-6.35488
-6.37324
-6.41699
-6.47406
-6.53485
-6.59646
-6.65816
-6.71915
-6.77883
-6.83688
-6.89319
-6.94765
-7.00018
-7.05067
-7.09898
-7.14491
-7.18823
-7.22834
-6.3972
-6.41259
-6.44906
-6.49829
-6.55274
-6.60929
-6.66672
-6.72408
-6.78066
-6.83598
-6.88977
-6.94185
-6.99204
-7.04019
-7.08616
-7.12977
-7.17086
-7.209
-6.4351
-6.44806
-6.47878
-6.52135
-6.56995
-6.62157
-6.67475
-6.72843
-6.78177
-6.8342
-6.88534
-6.9349
-6.98267
-7.02848
-7.07216
-7.1136
-7.15267
-7.18906
-6.46622
-6.47731
-6.50368
-6.54096
-6.58454
-6.63175
-6.681
-6.73118
-6.78139
-6.83097
-6.87948
-6.92656
-6.97197
-7.01553
-7.05709
-7.09655
-7.13381
-7.16866
-6.48727
-6.49707
-6.52045
-6.55397
-6.59379
-6.63751
-6.68357
-6.7308
-6.7783
-6.82537
-6.87153
-6.91639
-6.95971
-7.0013
-7.04102
-7.0788
-7.11456
-7.14814
-6.49318
-6.50236
-6.52434
-6.55608
-6.59403
-6.6359
-6.68015
-6.72563
-6.77142
-6.81684
-6.86138
-6.9047
-6.94652
-6.98668
-7.02506
-7.06159
-7.09623
-7.12882
-6.48356
-6.49276
-6.51491
-6.54691
-6.58506
-6.62695
-6.67104
-6.71619
-6.76154
-6.80642
-6.85034
-6.89298
-6.93411
-6.97356
-7.01126
-7.04715
-7.0812
-7.11329
-6.46278
-6.47241
-6.49591
-6.52986
-6.5699
-6.61326
-6.65843
-6.70436
-6.75021
-6.79536
-6.83938
-6.88197
-6.92294
-6.96216
-6.99958
-7.03515
-7.06887
-7.10062
-6.43404
-6.44423
-6.47011
-6.50764
-6.55099
-6.59691
-6.64406
-6.69155
-6.73861
-6.78464
-6.82929
-6.87233
-6.9136
-6.95303
-6.99055
-7.02618
-7.05994
-7.09173
-6.3997
-6.41005
-6.43941
-6.4823
-6.53011
-6.57921
-6.62886
-6.67836
-6.72694
-6.7741
-6.81956
-6.86318
-6.90486
-6.94453
-6.98219
-7.01785
-7.05152
-7.08308
-6.36181
-6.37089
-6.40522
-6.45581
-6.5091
-6.56184
-6.61445
-6.6664
-6.71688
-6.76552
-6.81216
-6.85674
-6.89919
-6.93947
-6.9776
-7.01362
-7.04756
-7.0794
-6.32229
-6.32697
-6.36836
-6.42871
-6.48751
-6.54379
-6.59935
-6.65347
-6.7054
-6.75502
-6.8024
-6.84754
-6.89042
-6.93104
-6.96943
-7.00557
-7.03945
-7.07083
-6.28237
-6.27863
-6.33399
-6.40637
-6.46965
-6.52978
-6.5896
-6.64722
-6.70173
-6.75333
-6.80223
-6.84852
-6.89227
-6.93353
-6.97237
-7.00881
-7.04289
-7.07457
-6.23942
-6.21012
-6.29547
-6.38347
-6.44583
-6.50425
-6.56368
-6.62119
-6.67588
-6.72809
-6.77796
-6.82544
-6.87051
-6.91317
-6.95342
-6.99121
-7.02633
-7.05808
-6.2334
-6.11852
-6.25797
-6.38823
-6.47087
-6.54137
-6.60654
-6.66511
-6.71841
-6.7681
-6.81494
-6.85925
-6.90122
-6.94099
-6.97865
-7.0142
-7.04751
-7.07825
-6.33076
-5.99951
-6.07497
-6.17679
-6.26769
-6.36301
-6.45365
-6.53477
-6.60775
-6.67441
-6.73569
-6.79218
-6.84442
-6.89289
-6.938
-6.98003
-7.01894
-7.05405
-6.62954
-6.69454
-6.72689
-6.65313
-6.61912
-6.63072
-6.65937
-6.69371
-6.73161
-6.77185
-6.81299
-6.85399
-6.89423
-6.93337
-6.97126
-7.00793
-7.04344
-7.07896
-2.93521
-5.12895
-5.92657
-6.14608
-6.28004
-6.39875
-6.49591
-6.57557
-6.64469
-6.70703
-6.76411
-6.81677
-6.86566
-6.91131
-6.9542
-6.99488
-7.03405
-7.07652
-7.91357
-7.91376
-7.91452
-7.91557
-7.91667
-7.91781
-7.91907
-7.92065
-7.92265
-7.92508
-7.92799
-7.93142
-7.93543
-7.94006
-7.94533
-7.95127
-7.95789
-7.9652
-7.97321
-7.9819
-7.99127
-8.00131
-8.01201
-8.02336
-8.03534
-8.04793
-8.06114
-8.07494
-8.08931
-8.10426
-8.11978
-8.13584
-8.15245
-8.16961
-8.18729
-8.20551
-8.22425
-8.24351
-8.26329
-8.28361
-8.30447
-8.3258
-8.34754
-8.36968
-8.39221
-8.41512
-8.43839
-8.46201
-8.48594
-8.51015
-8.53461
-8.55927
-8.58409
-8.60903
-8.63402
-8.659
-8.6839
-8.70866
-8.73319
-8.75741
-8.78123
-8.80455
-8.82727
-8.84926
-8.87043
-8.89064
-8.90976
-8.92765
-8.94417
-8.95916
-8.97246
-8.9839
-8.9933
-9.00048
-9.00524
-9.00738
-9.0067
-9.00296
-8.99594
-8.98541
-8.97113
-8.95283
-8.93027
-8.90318
-8.87129
-8.83434
-8.79205
-8.74415
-8.69037
-8.63044
-8.56409
-8.49109
-8.41117
-8.32413
-8.22974
-8.12783
-8.01823
-7.90081
-7.77543
-7.64194
-7.50022
-7.35025
-7.19206
-7.02573
-6.85132
-6.66895
-6.47875
-6.28086
-6.07546
-5.86276
-5.64297
-5.41635
-5.18316
-4.94369
-4.69826
-4.44719
-4.19084
-3.92957
-3.66376
-3.3938
-3.12011
-2.84308
-2.56313
-2.28067
-1.99612
-1.70989
-1.42239
-1.13401
-0.845159
-0.556205
-0.267513
0.0205747
0.307732
0.59365
0.87804
1.16063
1.44119
1.71948
1.99534
2.26858
2.53906
2.80667
3.07129
3.33287
3.59135
3.84671
4.09893
4.34802
4.59402
4.83696
5.0769
5.3139
5.54805
5.77945
6.00818
6.23432
6.45802
6.67936
6.8984
7.11531
7.33014
7.54295
7.75389
7.9629
8.17011
8.37572
8.57939
8.78083
8.98121
9.1801
9.37609
9.56958
9.76061
9.94911
10.135
10.3182
10.4992
10.678
10.8627
11.0402
-7.91137
-7.91195
-7.91279
-7.91368
-7.91442
-7.91501
-7.91564
-7.91656
-7.91792
-7.91979
-7.92221
-7.9252
-7.9288
-7.93304
-7.93795
-7.94354
-7.94982
-7.9568
-7.96448
-7.97284
-7.98188
-7.9916
-8.00197
-8.01299
-8.02463
-8.03689
-8.04975
-8.0632
-8.07723
-8.09183
-8.10698
-8.12269
-8.13894
-8.15572
-8.17304
-8.19089
-8.20926
-8.22814
-8.24753
-8.26744
-8.28784
-8.3087
-8.33001
-8.35173
-8.37386
-8.39637
-8.41926
-8.44249
-8.46604
-8.48988
-8.51397
-8.53828
-8.56276
-8.58735
-8.61201
-8.63667
-8.66127
-8.68574
-8.71
-8.73396
-8.75755
-8.78065
-8.80317
-8.825
-8.84603
-8.86613
-8.88517
-8.90301
-8.91952
-8.93454
-8.9479
-8.95945
-8.96901
-8.9764
-8.98142
-8.98387
-8.98356
-8.98026
-8.97374
-8.96378
-8.95013
-8.93255
-8.91078
-8.88456
-8.85362
-8.81771
-8.77654
-8.72985
-8.67736
-8.61881
-8.55393
-8.48246
-8.40417
-8.31882
-8.22621
-8.12614
-8.01845
-7.90301
-7.77968
-7.64822
-7.50849
-7.36053
-7.20437
-7.04007
-6.8677
-6.68736
-6.49918
-6.30331
-6.0999
-5.88916
-5.67129
-5.44655
-5.2152
-4.97751
-4.73381
-4.4844
-4.22964
-3.96988
-3.7055
-3.43689
-3.16444
-2.88857
-2.60969
-2.32819
-2.0445
-1.75904
-1.47219
-1.18437
-0.895973
-0.607373
-0.318937
-0.0310105
0.256077
0.542015
0.826508
1.10929
1.3901
1.66872
1.94496
2.21865
2.48964
2.75779
3.023
3.28519
3.54431
3.80034
4.05324
4.30301
4.54969
4.79332
5.03394
5.27161
5.50641
5.73844
5.96778
6.1945
6.41874
6.6406
6.86012
7.07748
7.29272
7.50588
7.7172
7.9265
8.13401
8.34004
8.54416
8.74596
8.94624
9.14466
9.34026
9.53343
9.72418
9.91248
10.0984
10.2818
10.4639
10.6441
10.8333
11.0082
-7.90597
-7.90754
-7.90949
-7.9109
-7.91161
-7.91202
-7.9125
-7.91329
-7.91452
-7.91627
-7.91858
-7.92148
-7.925
-7.92915
-7.93395
-7.93941
-7.94553
-7.95232
-7.95978
-7.96789
-7.97666
-7.98607
-7.9961
-8.00676
-8.01803
-8.02989
-8.04233
-8.05535
-8.06893
-8.08307
-8.09776
-8.11299
-8.12875
-8.14504
-8.16186
-8.17919
-8.19704
-8.21541
-8.23427
-8.25363
-8.27348
-8.29379
-8.31455
-8.33574
-8.35734
-8.37933
-8.40171
-8.42443
-8.44749
-8.47083
-8.49444
-8.51827
-8.54227
-8.56641
-8.59062
-8.61484
-8.63902
-8.66308
-8.68695
-8.71054
-8.73377
-8.75654
-8.77875
-8.8003
-8.82108
-8.84095
-8.8598
-8.87749
-8.89388
-8.90882
-8.92216
-8.93373
-8.94336
-8.95087
-8.95607
-8.95878
-8.95878
-8.95586
-8.9498
-8.94038
-8.92736
-8.91049
-8.88952
-8.86419
-8.83425
-8.79943
-8.75946
-8.71406
-8.66297
-8.60591
-8.54263
-8.47287
-8.39637
-8.31291
-8.22227
-8.12425
-8.0187
-7.90549
-7.7844
-7.65517
-7.5177
-7.37202
-7.21817
-7.0562
-6.88617
-6.70818
-6.52234
-6.3288
-6.12772
-5.91928
-5.7037
-5.4812
-5.25205
-5.01652
-4.77492
-4.52755
-4.27475
-4.01688
-3.75431
-3.48743
-3.21662
-2.94228
-2.66483
-2.38468
-2.10222
-1.81788
-1.53205
-1.24513
-0.957525
-0.669609
-0.381749
-0.0942953
0.192422
0.478089
0.762408
1.0451
1.32592
1.60462
1.88102
2.15493
2.4262
2.6947
2.9603
3.22292
3.4825
3.73901
3.99242
4.24271
4.48992
4.73407
4.9752
5.21336
5.44863
5.68111
5.91085
6.13793
6.3625
6.58464
6.80433
7.02186
7.23722
7.45034
7.66171
7.87105
8.07839
8.28409
8.48779
8.68915
8.8891
9.08741
9.28309
9.47643
9.66739
9.856
10.0424
10.2267
10.4104
10.5918
10.7857
10.9499
-7.8989
-7.90147
-7.9049
-7.90738
-7.90884
-7.90983
-7.91076
-7.91188
-7.91334
-7.91526
-7.91769
-7.92068
-7.92425
-7.92843
-7.93323
-7.93864
-7.94469
-7.95137
-7.95868
-7.96661
-7.97517
-7.98433
-7.9941
-8.00446
-8.01541
-8.02693
-8.03902
-8.05167
-8.06487
-8.07861
-8.0929
-8.10771
-8.12306
-8.13893
-8.15532
-8.17223
-8.18964
-8.20756
-8.22599
-8.2449
-8.26429
-8.28416
-8.30448
-8.32524
-8.34643
-8.36802
-8.39
-8.41234
-8.43501
-8.45799
-8.48125
-8.50473
-8.5284
-8.55221
-8.57611
-8.60004
-8.62394
-8.64773
-8.67135
-8.69471
-8.71772
-8.7403
-8.76234
-8.78374
-8.80439
-8.82417
-8.84295
-8.8606
-8.87699
-8.89196
-8.90537
-8.91705
-8.92683
-8.93454
-8.94
-8.943
-8.94336
-8.94086
-8.93529
-8.92641
-8.914
-8.89782
-8.87761
-8.85312
-8.82409
-8.79026
-8.75135
-8.70709
-8.65722
-8.60146
-8.53954
-8.4712
-8.3962
-8.31429
-8.22526
-8.1289
-8.02507
-7.91362
-7.79422
-7.66662
-7.53083
-7.38685
-7.23471
-7.07445
-6.90614
-6.72987
-6.54575
-6.35391
-6.15452
-5.94776
-5.73382
-5.51294
-5.28537
-5.05138
-4.81127
-4.56534
-4.31394
-4.0574
-3.79611
-3.53043
-3.26076
-2.9875
-2.71105
-2.43182
-2.15022
-1.86665
-1.58152
-1.29522
-1.00816
-0.720715
-0.433251
-0.146122
0.140341
0.425822
0.710019
0.992652
1.27346
1.55222
1.82871
2.10277
2.37423
2.64293
2.90878
3.17167
3.43155
3.68838
3.9421
4.19271
4.44023
4.68471
4.92616
5.16459
5.40014
5.6329
5.86287
6.0901
6.31487
6.53719
6.75687
6.97451
7.19004
7.40319
7.61448
7.82372
8.03094
8.23641
8.43988
8.6411
8.84076
9.03874
9.23429
9.42758
9.61857
9.80728
9.99393
10.1785
10.3627
10.5436
10.7375
10.8895
-7.89229
-7.89567
-7.90055
-7.90433
-7.9068
-7.9086
-7.91021
-7.91188
-7.9138
-7.91609
-7.91884
-7.9221
-7.9259
-7.93025
-7.93518
-7.94069
-7.94679
-7.95347
-7.96074
-7.96859
-7.97702
-7.98603
-7.99561
-8.00576
-8.01647
-8.02772
-8.03953
-8.05188
-8.06476
-8.07818
-8.09213
-8.1066
-8.1216
-8.13712
-8.15315
-8.1697
-8.18676
-8.20433
-8.22239
-8.24096
-8.26001
-8.27953
-8.29952
-8.31996
-8.34084
-8.36214
-8.38383
-8.4059
-8.42831
-8.45105
-8.47406
-8.49732
-8.52078
-8.54439
-8.56811
-8.59187
-8.6156
-8.63926
-8.66274
-8.68599
-8.70891
-8.73141
-8.7534
-8.77476
-8.7954
-8.81518
-8.83399
-8.85171
-8.86818
-8.88326
-8.89681
-8.90867
-8.91866
-8.92662
-8.93237
-8.93571
-8.93644
-8.93436
-8.92926
-8.9209
-8.90907
-8.89351
-8.87398
-8.85023
-8.82199
-8.789
-8.75099
-8.70768
-8.65881
-8.60408
-8.54324
-8.47602
-8.40216
-8.32143
-8.23359
-8.13845
-8.03586
-7.92562
-7.80732
-7.68076
-7.54604
-7.40316
-7.25211
-7.09295
-6.92573
-6.75055
-6.5675
-6.37674
-6.17839
-5.97265
-5.75972
-5.53983
-5.31321
-5.08015
-4.84092
-4.59585
-4.34526
-4.0895
-3.82894
-3.56396
-3.29494
-3.02229
-2.74641
-2.4677
-2.18657
-1.90343
-1.61868
-1.33272
-1.04595
-0.758763
-0.471514
-0.184563
0.101761
0.387142
0.671272
0.953868
1.23467
1.51344
1.78997
2.0641
2.33564
2.60444
2.8704
3.13339
3.39341
3.65038
3.90423
4.15495
4.4026
4.64723
4.88881
5.1273
5.36293
5.59584
5.82588
6.05308
6.27793
6.5004
6.72018
6.9378
7.15326
7.3664
7.57758
7.78672
7.99383
8.19911
8.40239
8.60351
8.80291
9.00049
9.19578
9.38886
9.57971
9.76832
9.95491
10.1393
10.3232
10.5025
10.6943
10.8351
-7.88778
-7.89176
-7.89772
-7.90267
-7.90615
-7.9088
-7.91113
-7.91342
-7.91587
-7.91862
-7.92176
-7.92534
-7.92942
-7.934
-7.93911
-7.94476
-7.95094
-7.95767
-7.96494
-7.97276
-7.98112
-7.99002
-7.99947
-8.00945
-8.01996
-8.031
-8.04258
-8.05468
-8.0673
-8.08045
-8.09412
-8.10831
-8.12302
-8.13825
-8.15399
-8.17026
-8.18703
-8.20432
-8.22211
-8.24041
-8.2592
-8.27847
-8.29822
-8.31844
-8.3391
-8.36019
-8.3817
-8.40359
-8.42584
-8.44842
-8.4713
-8.49444
-8.51779
-8.5413
-8.56494
-8.58863
-8.61231
-8.63592
-8.65938
-8.68262
-8.70555
-8.72807
-8.75009
-8.77151
-8.79221
-8.81209
-8.83101
-8.84886
-8.86548
-8.88075
-8.8945
-8.90659
-8.91684
-8.92509
-8.93115
-8.93485
-8.93597
-8.93432
-8.92968
-8.92183
-8.91054
-8.89556
-8.87666
-8.85357
-8.82604
-8.79379
-8.75655
-8.71404
-8.66599
-8.61212
-8.55215
-8.4858
-8.41283
-8.33298
-8.24602
-8.15177
-8.05006
-7.94055
-7.82285
-7.69692
-7.56284
-7.42059
-7.27019
-7.11166
-6.94508
-6.77052
-6.58809
-6.39791
-6.20016
-5.99498
-5.7826
-5.56323
-5.33712
-5.10455
-4.86579
-4.62115
-4.37097
-4.1156
-3.8554
-3.59076
-3.32206
-3.0497
-2.77409
-2.49563
-2.21473
-1.9318
-1.64723
-1.36144
-1.07482
-0.787763
-0.500634
-0.213791
0.072442
0.35775
0.641819
0.924358
1.20511
1.48383
1.76032
2.03442
2.30595
2.57472
2.84064
3.10359
3.36358
3.62055
3.87437
4.12501
4.3726
4.61724
4.85879
5.09715
5.33269
5.56563
5.79568
6.02286
6.24761
6.46992
6.68962
6.90709
7.12237
7.33538
7.54638
7.75534
7.96228
8.16734
8.37041
8.57138
8.77052
8.96777
9.16282
9.3557
9.54638
9.73483
9.92123
10.1052
10.2885
10.4657
10.6552
10.7863
-7.88638
-7.89065
-7.89722
-7.90302
-7.90733
-7.91073
-7.91372
-7.91659
-7.91954
-7.92272
-7.92624
-7.93014
-7.93449
-7.93929
-7.94458
-7.95036
-7.95664
-7.96343
-7.97072
-7.97852
-7.98683
-7.99566
-8.00499
-8.01484
-8.0252
-8.03607
-8.04745
-8.05935
-8.07176
-8.08469
-8.09813
-8.1121
-8.12658
-8.14158
-8.1571
-8.17314
-8.1897
-8.20678
-8.22437
-8.24248
-8.26109
-8.28019
-8.29978
-8.31985
-8.34038
-8.36135
-8.38275
-8.40455
-8.42673
-8.44925
-8.47208
-8.49518
-8.5185
-8.54201
-8.56565
-8.58935
-8.61307
-8.63672
-8.66024
-8.68355
-8.70656
-8.72918
-8.75131
-8.77285
-8.7937
-8.81373
-8.83283
-8.85086
-8.86769
-8.88318
-8.89718
-8.90953
-8.92007
-8.92863
-8.93504
-8.93909
-8.94061
-8.93938
-8.93519
-8.92782
-8.91704
-8.9026
-8.88427
-8.86178
-8.83487
-8.80326
-8.76669
-8.72486
-8.6775
-8.62431
-8.56503
-8.49936
-8.42705
-8.34784
-8.2615
-8.16786
-8.06673
-7.95754
-7.84002
-7.71437
-7.58059
-7.43863
-7.28851
-7.13027
-6.96395
-6.78966
-6.60748
-6.41755
-6.22002
-6.01506
-5.80288
-5.5837
-5.35777
-5.12535
-4.88674
-4.64223
-4.39217
-4.1369
-3.8768
-3.61224
-3.34362
-3.07134
-2.7958
-2.51742
-2.23659
-1.95371
-1.6692
-1.38347
-1.09691
-0.809919
-0.522865
-0.236107
0.0500423
0.335275
0.619258
0.901699
1.18234
1.46092
1.73728
2.01127
2.28268
2.55131
2.81705
3.07979
3.33964
3.5965
3.85013
4.10052
4.34789
4.59242
4.83385
5.07209
5.30746
5.54012
5.76993
5.99693
6.22143
6.44345
6.66294
6.88017
7.09518
7.30797
7.51873
7.72745
7.93417
8.13898
8.34182
8.54261
8.74153
8.93852
9.13337
9.32609
9.51662
9.7049
9.89106
10.0746
10.257
10.4322
10.6195
10.7422
-7.88808
-7.8924
-7.8992
-7.9055
-7.91041
-7.91439
-7.91791
-7.92126
-7.92464
-7.92819
-7.93202
-7.93619
-7.94076
-7.94575
-7.95118
-7.95707
-7.96342
-7.97025
-7.97755
-7.98533
-7.9936
-8.00235
-8.01159
-8.02133
-8.03156
-8.04229
-8.05352
-8.06525
-8.07749
-8.09025
-8.10352
-8.1173
-8.13161
-8.14644
-8.1618
-8.17768
-8.1941
-8.21103
-8.2285
-8.24648
-8.26498
-8.28399
-8.3035
-8.32349
-8.34397
-8.3649
-8.38627
-8.40806
-8.43023
-8.45276
-8.47562
-8.49876
-8.52214
-8.54571
-8.56943
-8.59323
-8.61704
-8.64081
-8.66445
-8.6879
-8.71105
-8.73383
-8.75613
-8.77785
-8.79889
-8.81912
-8.83843
-8.85669
-8.87376
-8.88951
-8.90377
-8.91641
-8.92726
-8.93614
-8.94288
-8.94729
-8.94919
-8.94836
-8.9446
-8.93768
-8.92737
-8.91343
-8.89561
-8.87365
-8.84728
-8.81623
-8.78022
-8.73895
-8.69215
-8.63951
-8.58075
-8.51559
-8.44375
-8.36497
-8.27903
-8.18576
-8.08483
-7.9756
-7.858
-7.73235
-7.59857
-7.45661
-7.3065
-7.14825
-6.98193
-6.80761
-6.6254
-6.43544
-6.23786
-6.03284
-5.8206
-5.60134
-5.37532
-5.14282
-4.90411
-4.6595
-4.40933
-4.15396
-3.89375
-3.62909
-3.36039
-3.08802
-2.81242
-2.53398
-2.2531
-1.97019
-1.68564
-1.3999
-1.11336
-0.826402
-0.539409
-0.252746
0.0333055
0.318447
0.602312
0.884602
1.16506
1.44342
1.71954
1.99335
2.26456
2.53294
2.79838
3.06076
3.32036
3.57704
3.8304
4.08054
4.32764
4.5718
4.81285
5.0508
5.28585
5.51811
5.74755
5.97424
6.19838
6.42004
6.63923
6.85613
7.07082
7.28332
7.49379
7.70224
7.90871
8.11326
8.31587
8.5165
8.71522
8.91201
9.10671
9.29929
9.4897
9.67781
9.86369
10.0467
10.2282
10.4015
10.5868
10.7024
-7.89258
-7.89675
-7.90348
-7.90998
-7.91525
-7.91962
-7.92352
-7.92723
-7.93092
-7.93475
-7.93881
-7.94317
-7.9479
-7.95301
-7.95853
-7.96448
-7.97087
-7.9777
-7.98499
-7.99274
-8.00095
-8.00963
-8.01878
-8.02842
-8.03854
-8.04915
-8.06025
-8.07186
-8.08397
-8.09659
-8.10973
-8.12339
-8.13758
-8.1523
-8.16755
-8.18333
-8.19966
-8.21652
-8.23391
-8.25184
-8.2703
-8.28929
-8.30878
-8.32878
-8.34927
-8.37023
-8.39164
-8.41348
-8.43572
-8.45833
-8.48128
-8.50453
-8.52802
-8.55173
-8.57558
-8.59952
-8.6235
-8.64743
-8.67125
-8.69488
-8.71823
-8.7412
-8.76371
-8.78565
-8.8069
-8.82737
-8.84691
-8.86541
-8.88274
-8.89874
-8.91328
-8.9262
-8.93734
-8.94653
-8.95359
-8.95835
-8.96059
-8.96014
-8.95676
-8.95024
-8.94035
-8.92685
-8.90947
-8.88797
-8.86207
-8.83148
-8.79594
-8.75513
-8.70876
-8.65654
-8.59816
-8.53334
-8.4618
-8.38327
-8.29756
-8.20448
-8.10326
-7.99356
-7.87576
-7.7499
-7.6159
-7.47373
-7.32339
-7.16492
-6.99836
-6.82381
-6.64136
-6.45113
-6.25329
-6.04801
-5.83549
-5.61597
-5.38968
-5.1569
-4.91793
-4.67305
-4.4226
-4.16697
-3.90652
-3.64163
-3.37272
-3.10017
-2.82441
-2.54583
-2.26486
-1.98184
-1.69722
-1.41144
-1.12489
-0.837975
-0.55106
-0.26454
0.0213712
0.306403
0.590112
0.872192
1.15239
1.43042
1.70621
1.97977
2.25073
2.51878
2.78389
3.04598
3.30518
3.56136
3.8143
4.06405
4.31072
4.55437
4.79494
5.03245
5.26705
5.49883
5.72781
5.95407
6.17778
6.39901
6.61781
6.83433
7.04865
7.26082
7.47097
7.67912
7.88532
8.08963
8.29202
8.49248
8.69104
8.88768
9.08227
9.27475
9.46505
9.653
9.8386
10.021
10.2016
10.3732
10.5567
10.6665
-7.8994
-7.9033
-7.90972
-7.91616
-7.92156
-7.92614
-7.93026
-7.93418
-7.93808
-7.94207
-7.94627
-7.95075
-7.95555
-7.96071
-7.96627
-7.97222
-7.9786
-7.9854
-7.99264
-8.00033
-8.00847
-8.01707
-8.02614
-8.03568
-8.0457
-8.05621
-8.06722
-8.07872
-8.09074
-8.10327
-8.11633
-8.12991
-8.14402
-8.15868
-8.17388
-8.18962
-8.20592
-8.22276
-8.24015
-8.25809
-8.27657
-8.29559
-8.31514
-8.3352
-8.35576
-8.37681
-8.39832
-8.42027
-8.44264
-8.46539
-8.48848
-8.51189
-8.53555
-8.55942
-8.58346
-8.6076
-8.63177
-8.6559
-8.67993
-8.70377
-8.72733
-8.75052
-8.77325
-8.79541
-8.81689
-8.83759
-8.85737
-8.8761
-8.89367
-8.90992
-8.92471
-8.93788
-8.94928
-8.95874
-8.96609
-8.97113
-8.97368
-8.97354
-8.97049
-8.96431
-8.95477
-8.94163
-8.92462
-8.90349
-8.87797
-8.84776
-8.81257
-8.77211
-8.72606
-8.67413
-8.61599
-8.55137
-8.47995
-8.40152
-8.31585
-8.22252
-8.12071
-8.01045
-7.89224
-7.76599
-7.6316
-7.48904
-7.33831
-7.17944
-7.01249
-6.83753
-6.65466
-6.46403
-6.26577
-6.06008
-5.84715
-5.62721
-5.40051
-5.16734
-4.92798
-4.68272
-4.43189
-4.1759
-3.91512
-3.64994
-3.38075
-3.10797
-2.832
-2.55328
-2.2722
-1.98906
-1.70433
-1.41852
-1.13199
-0.845135
-0.55834
-0.272038
0.0136699
0.298573
0.582091
0.863907
1.14381
1.42156
1.69703
1.97015
2.24062
2.50821
2.77287
3.03451
3.29317
3.54875
3.80113
4.05035
4.29645
4.53951
4.77949
5.01644
5.25048
5.48169
5.71012
5.93587
6.15907
6.37981
6.59815
6.81424
7.02815
7.23996
7.44975
7.65759
7.86352
8.06758
8.26978
8.47008
8.66851
8.86504
9.05954
9.25196
9.44217
9.62998
9.81529
9.9972
10.1769
10.347
10.5288
10.634
-7.90799
-7.91154
-7.91749
-7.92366
-7.92899
-7.9336
-7.9378
-7.9418
-7.94577
-7.94983
-7.95407
-7.95857
-7.96337
-7.96851
-7.97403
-7.97994
-7.98625
-7.99298
-8.00015
-8.00775
-8.0158
-8.02432
-8.03329
-8.04275
-8.05269
-8.06312
-8.07404
-8.08548
-8.09743
-8.10991
-8.12292
-8.13647
-8.15056
-8.16521
-8.18041
-8.19616
-8.21248
-8.22937
-8.24681
-8.26481
-8.28337
-8.30248
-8.32213
-8.3423
-8.36299
-8.38418
-8.40584
-8.42795
-8.45049
-8.47341
-8.49669
-8.52028
-8.54414
-8.56822
-8.59246
-8.61681
-8.64119
-8.66554
-8.68978
-8.71383
-8.7376
-8.761
-8.78394
-8.8063
-8.82799
-8.84888
-8.86886
-8.8878
-8.90556
-8.922
-8.93699
-8.95036
-8.96196
-8.97163
-8.97918
-8.98444
-8.98722
-8.98731
-8.98451
-8.97859
-8.96932
-8.95644
-8.93971
-8.91886
-8.89362
-8.86368
-8.82875
-8.78852
-8.74267
-8.6909
-8.63287
-8.5683
-8.49689
-8.41844
-8.33263
-8.23843
-8.13562
-8.02487
-7.90618
-7.77943
-7.64454
-7.50147
-7.35022
-7.19083
-7.02336
-6.84789
-6.66451
-6.47336
-6.27459
-6.06839
-5.85495
-5.63452
-5.40734
-5.17371
-4.93393
-4.68821
-4.43693
-4.18054
-3.9194
-3.6539
-3.38442
-3.11139
-2.83523
-2.55638
-2.27526
-1.99204
-1.70719
-1.42136
-1.13487
-0.848108
-0.561437
-0.275245
0.0102614
0.294821
0.577979
0.859432
1.13895
1.41629
1.69131
1.96388
2.23375
2.50076
2.76482
3.02585
3.28384
3.53873
3.79044
4.03898
4.28441
4.52676
4.76605
5.00234
5.23571
5.46627
5.69408
5.91923
6.14185
6.36204
6.57987
6.79548
7.00895
7.22035
7.42978
7.6373
7.84295
8.04678
8.24878
8.44894
8.64727
8.84371
9.03817
9.23054
9.4207
9.60838
9.79343
9.97485
10.1537
10.3225
10.5028
10.6044
-7.91783
-7.92097
-7.92635
-7.93209
-7.93718
-7.94166
-7.94579
-7.94974
-7.95367
-7.95768
-7.96187
-7.96629
-7.97102
-7.97607
-7.98149
-7.98729
-7.9935
-8.00012
-8.00717
-8.01467
-8.02263
-8.03104
-8.03993
-8.04931
-8.05917
-8.06954
-8.08042
-8.09181
-8.10374
-8.1162
-8.12921
-8.14276
-8.15688
-8.17156
-8.1868
-8.20262
-8.21902
-8.23599
-8.25353
-8.27165
-8.29033
-8.30957
-8.32937
-8.3497
-8.37055
-8.39191
-8.41375
-8.43604
-8.45877
-8.48189
-8.50537
-8.52916
-8.55322
-8.5775
-8.60195
-8.62649
-8.65107
-8.67561
-8.70003
-8.72426
-8.7482
-8.77177
-8.79487
-8.81738
-8.83921
-8.86024
-8.88034
-8.8994
-8.91728
-8.93383
-8.94893
-8.96241
-8.97412
-8.98389
-8.99156
-8.99694
-8.99984
-9.00007
-8.9974
-8.99164
-8.98252
-8.96981
-8.95324
-8.93257
-8.90749
-8.87771
-8.84292
-8.80281
-8.75705
-8.7053
-8.64726
-8.58262
-8.51114
-8.4325
-8.34578
-8.25038
-8.14684
-8.03551
-7.91624
-7.78892
-7.65347
-7.5098
-7.35796
-7.198
-7.02995
-6.85391
-6.66997
-6.47825
-6.27893
-6.07218
-5.8582
-5.63725
-5.40957
-5.17547
-4.9353
-4.68919
-4.43745
-4.18066
-3.91916
-3.65333
-3.38358
-3.11031
-2.83395
-2.55492
-2.27364
-1.9904
-1.70563
-1.41987
-1.13349
-0.846881
-0.560409
-0.274437
0.0107616
0.294894
0.577588
0.858552
1.13754
1.41433
1.68875
1.96064
2.2298
2.49609
2.75941
3.01969
3.2769
3.53098
3.78189
4.02963
4.27426
4.51581
4.75431
4.98983
5.22245
5.45227
5.67938
5.90386
6.12584
6.34542
6.5627
6.77779
6.99078
7.20175
7.4108
7.61799
7.82337
8.02696
8.22878
8.42882
8.62707
8.82346
9.0179
9.21025
9.40037
9.58794
9.77276
9.95373
10.1319
10.2995
10.4784
10.5775
-7.92841
-7.93114
-7.93589
-7.9411
-7.94581
-7.95002
-7.95393
-7.9577
-7.96147
-7.96532
-7.96935
-7.97361
-7.97818
-7.98307
-7.98832
-7.99397
-8.00002
-8.00651
-8.01343
-8.0208
-8.02865
-8.03697
-8.04577
-8.05508
-8.06489
-8.07522
-8.08607
-8.09746
-8.10939
-8.12187
-8.13491
-8.14852
-8.1627
-8.17745
-8.19279
-8.20872
-8.22523
-8.24232
-8.26
-8.27826
-8.2971
-8.31651
-8.33647
-8.35697
-8.378
-8.39954
-8.42157
-8.44405
-8.46696
-8.49026
-8.51392
-8.53789
-8.56212
-8.58657
-8.61117
-8.63586
-8.66057
-8.68524
-8.70978
-8.73411
-8.75814
-8.78178
-8.80494
-8.8275
-8.84937
-8.87042
-8.89054
-8.9096
-8.92747
-8.94401
-8.95909
-8.97255
-8.98424
-8.99399
-9.00164
-9.00701
-9.00991
-9.01014
-9.0075
-9.00176
-8.99268
-8.98
-8.96348
-8.94285
-8.91782
-8.88808
-8.85332
-8.81321
-8.76741
-8.71558
-8.65743
-8.59267
-8.52096
-8.44143
-8.35326
-8.25685
-8.15273
-8.04081
-7.92094
-7.79304
-7.65706
-7.51287
-7.36045
-7.19991
-7.0313
-6.85469
-6.67018
-6.47791
-6.27804
-6.07074
-5.85624
-5.63477
-5.4066
-5.17201
-4.93134
-4.68484
-4.43279
-4.17566
-3.91385
-3.64775
-3.37777
-3.10431
-2.8278
-2.54866
-2.26731
-1.98411
-1.69948
-1.4139
-1.12775
-0.841417
-0.555279
-0.269687
0.0150557
0.298645
0.580748
0.861081
1.1394
1.41548
1.68914
1.96022
2.22854
2.49397
2.75642
3.01581
3.2721
3.52525
3.77524
4.02207
4.26578
4.50642
4.74404
4.9787
5.21049
5.4395
5.66582
5.88957
6.11086
6.32979
6.54646
6.76099
6.97348
7.18401
7.39267
7.59953
7.80462
8.008
8.20966
8.40959
8.60777
8.80414
8.99858
9.19094
9.38104
9.56853
9.75313
9.93371
10.1112
10.2779
10.4555
10.553
-7.93938
-7.94169
-7.94581
-7.9504
-7.95461
-7.95842
-7.96198
-7.96544
-7.9689
-7.97247
-7.97623
-7.98024
-7.98455
-7.98921
-7.99425
-7.99969
-8.00555
-8.01186
-8.01863
-8.02588
-8.03361
-8.04184
-8.05057
-8.05983
-8.06961
-8.07992
-8.09078
-8.10219
-8.11416
-8.12669
-8.13981
-8.1535
-8.16777
-8.18264
-8.1981
-8.21415
-8.2308
-8.24805
-8.26588
-8.2843
-8.30329
-8.32286
-8.34298
-8.36365
-8.38484
-8.40653
-8.4287
-8.45133
-8.47437
-8.4978
-8.52157
-8.54564
-8.56996
-8.59448
-8.61913
-8.64386
-8.6686
-8.69328
-8.7178
-8.74209
-8.76606
-8.78963
-8.8127
-8.83516
-8.8569
-8.87782
-8.89779
-8.91669
-8.93439
-8.95076
-8.96566
-8.97894
-8.99045
-9.00003
-9.00751
-9.01271
-9.01546
-9.01556
-9.0128
-9.00697
-8.99782
-8.98509
-8.96851
-8.94783
-8.92276
-8.89297
-8.85814
-8.81794
-8.77202
-8.72005
-8.66178
-8.59681
-8.52415
-8.44292
-8.35354
-8.25656
-8.15191
-8.03944
-7.91902
-7.79056
-7.654
-7.50931
-7.35641
-7.19535
-7.02622
-6.84909
-6.66406
-6.47128
-6.2709
-6.06311
-5.84814
-5.62621
-5.39759
-5.16258
-4.92148
-4.6746
-4.42227
-4.1649
-3.90288
-3.63661
-3.3665
-3.09298
-2.81645
-2.53734
-2.25608
-1.97306
-1.68869
-1.40342
-1.11764
-0.831742
-0.546096
-0.261052
0.023074
0.305974
0.587336
0.866882
1.14437
1.41958
1.69233
1.96245
2.22979
2.49422
2.75565
3.01401
3.26926
3.52137
3.77031
4.01611
4.25881
4.49845
4.73509
4.9688
5.19967
5.4278
5.65329
5.87625
6.09679
6.31502
6.53106
6.74501
6.95698
7.16705
7.37531
7.58183
7.78665
7.98982
8.19133
8.39117
8.58931
8.78567
8.98013
9.17253
9.36263
9.55005
9.73447
9.91471
10.0915
10.2575
10.4338
10.5305
-7.95046
-7.95241
-7.9559
-7.95983
-7.96344
-7.96671
-7.96976
-7.97274
-7.97575
-7.9789
-7.98226
-7.9859
-7.98987
-7.99422
-7.99897
-8.00416
-8.0098
-8.01592
-8.02253
-8.02964
-8.03727
-8.04542
-8.0541
-8.06332
-8.07309
-8.08342
-8.09431
-8.10577
-8.1178
-8.13042
-8.14363
-8.15742
-8.17181
-8.1868
-8.20239
-8.21858
-8.23536
-8.25274
-8.2707
-8.28925
-8.30836
-8.32804
-8.34826
-8.36902
-8.39029
-8.41204
-8.43426
-8.45692
-8.47997
-8.50339
-8.52713
-8.55115
-8.57539
-8.59981
-8.62435
-8.64894
-8.67352
-8.69802
-8.72235
-8.74642
-8.77014
-8.79345
-8.81623
-8.83839
-8.85982
-8.88042
-8.90006
-8.91862
-8.93598
-8.95201
-8.96656
-8.9795
-8.99067
-8.99993
-9.00709
-9.012
-9.01447
-9.0143
-9.0113
-9.00525
-8.99592
-8.98304
-8.96633
-8.94553
-8.92033
-8.89041
-8.85545
-8.8151
-8.76905
-8.71693
-8.65843
-8.59229
-8.51764
-8.43519
-8.34532
-8.24791
-8.1428
-8.02986
-7.90896
-7.78002
-7.64297
-7.49779
-7.34444
-7.18294
-7.01337
-6.83581
-6.65037
-6.45718
-6.2564
-6.04824
-5.8329
-5.61063
-5.3817
-5.1464
-4.90503
-4.65793
-4.40544
-4.14796
-3.88587
-3.61959
-3.34952
-3.07608
-2.7997
-2.52081
-2.23981
-1.95713
-1.67319
-1.3884
-1.10317
-0.817885
-0.53291
-0.248594
0.0347385
0.316781
0.597233
0.875825
1.15232
1.4265
1.69817
1.96719
2.2334
2.49668
2.75696
3.01415
3.26824
3.51918
3.76697
4.01163
4.25321
4.49176
4.72734
4.96002
5.1899
5.41709
5.64169
5.86381
6.08357
6.30107
6.51645
6.7298
6.94123
7.15083
7.3587
7.56488
7.76944
7.97241
8.17379
8.37356
8.57168
8.76806
8.96257
9.15502
9.34514
9.53252
9.71678
9.89673
10.073
10.2384
10.4134
10.5102
-7.96163
-7.96325
-7.96616
-7.96938
-7.97227
-7.97482
-7.97717
-7.97947
-7.98184
-7.98439
-7.9872
-7.99034
-7.99386
-7.99781
-8.00221
-8.0071
-8.0125
-8.01841
-8.02485
-8.03183
-8.03936
-8.04744
-8.05609
-8.0653
-8.07508
-8.08543
-8.09637
-8.10789
-8.12
-8.1327
-8.14599
-8.15988
-8.17436
-8.18944
-8.20511
-8.22138
-8.23823
-8.25567
-8.27368
-8.29225
-8.31137
-8.33103
-8.35122
-8.37191
-8.39309
-8.41473
-8.43681
-8.45929
-8.48215
-8.50535
-8.52884
-8.55258
-8.57652
-8.60061
-8.62479
-8.649
-8.67317
-8.69724
-8.72112
-8.74474
-8.768
-8.79081
-8.8131
-8.83475
-8.85566
-8.87573
-8.89484
-8.91288
-8.92972
-8.94524
-8.95929
-8.97173
-8.98243
-8.99123
-8.99796
-9.00245
-9.00453
-9.00401
-9.00069
-8.99433
-8.98471
-8.97159
-8.95467
-8.93366
-8.90828
-8.87819
-8.84308
-8.80264
-8.75651
-8.70399
-8.64359
-8.57527
-8.49978
-8.41702
-8.32686
-8.22914
-8.1237
-8.01042
-7.88918
-7.7599
-7.62253
-7.47702
-7.32335
-7.16157
-6.99171
-6.81388
-6.62817
-6.43474
-6.23374
-6.02536
-5.80984