/*--------------------------------*- C++ -*----------------------------------*\
| =========                 |                                                 |
| \\      /  F ield         | OpenFOAM: The Open Source CFD Toolbox           |
|  \\    /   O peration     | Version:  2.2.x                                 |
|   \\  /    A nd           | Web:      www.OpenFOAM.org                      |
|    \\/     M anipulation  |                                                 |
\*---------------------------------------------------------------------------*/
FoamFile
{
    version     2.0;
    format      ascii;
    class       surfaceScalarField;
    location    "700";
    object      phi;
}
// * * * * * * * * * * * * * * * * * * * * * * * * * * * * * * * * * * * * * //

dimensions      [0 3 -1 0 0 0 0];

internalField   nonuniform List<scalar> 
24170
(
3.08816e-06
4.57359e-08
3.0142e-06
7.39611e-08
2.95204e-06
6.21558e-08
2.88975e-06
6.22933e-08
2.83017e-06
5.95788e-08
2.77472e-06
5.54462e-08
2.72344e-06
5.12797e-08
2.67605e-06
4.73873e-08
2.63226e-06
4.37968e-08
2.59176e-06
4.04982e-08
2.55429e-06
3.74727e-08
2.51959e-06
3.46974e-08
2.48744e-06
3.21504e-08
2.45762e-06
2.982e-08
2.42988e-06
2.77352e-08
2.40369e-06
2.61931e-08
2.37681e-06
2.68785e-08
3.04522e-08
2.34636e-06
3.46858e-06
3.35997e-08
3.45792e-06
8.46216e-08
3.44339e-06
7.66819e-08
3.42857e-06
7.71138e-08
3.41238e-06
7.57704e-08
3.39524e-06
7.25886e-08
3.37747e-06
6.90506e-08
3.35931e-06
6.55446e-08
3.34099e-06
6.21152e-08
3.32271e-06
5.87804e-08
3.30463e-06
5.5557e-08
3.28687e-06
5.24553e-08
3.26954e-06
4.94831e-08
3.2527e-06
4.66588e-08
3.23639e-06
4.40471e-08
3.2207e-06
4.18768e-08
3.20712e-06
4.04632e-08
3.80059e-08
3.19956e-06
3.80922e-06
3.65718e-08
3.81785e-06
7.59921e-08
3.82008e-06
7.445e-08
3.82215e-06
7.50446e-08
3.82295e-06
7.4976e-08
3.82242e-06
7.31189e-08
3.82089e-06
7.05733e-08
3.81862e-06
6.78198e-08
3.81577e-06
6.49678e-08
3.81248e-06
6.20697e-08
3.80886e-06
5.91692e-08
3.80502e-06
5.62971e-08
3.80103e-06
5.34757e-08
3.79696e-06
5.07305e-08
3.7929e-06
4.81073e-08
3.78909e-06
4.56819e-08
3.78621e-06
4.33426e-08
3.95631e-08
3.78466e-06
4.20601e-06
3.51161e-08
4.21523e-06
6.67803e-08
4.21956e-06
7.01139e-08
4.2232e-06
7.14098e-08
4.22618e-06
7.19942e-08
4.22844e-06
7.08567e-08
4.2302e-06
6.88095e-08
4.23162e-06
6.64047e-08
4.23277e-06
6.38202e-08
4.2337e-06
6.11339e-08
4.23447e-06
5.84005e-08
4.23511e-06
5.5657e-08
4.23566e-06
5.29267e-08
4.23617e-06
5.02263e-08
4.23671e-06
4.75667e-08
4.23747e-06
4.49204e-08
4.23876e-06
4.2051e-08
3.79795e-08
4.24034e-06
4.64072e-06
3.17056e-08
4.64865e-06
5.88436e-08
4.65361e-06
6.51626e-08
4.65777e-06
6.72439e-08
4.66158e-06
6.81818e-08
4.66494e-06
6.75002e-08
4.66793e-06
6.58193e-08
4.67065e-06
6.36844e-08
4.67316e-06
6.1312e-08
4.6755e-06
5.87967e-08
4.6777e-06
5.61997e-08
4.67979e-06
5.35607e-08
4.68182e-06
5.09021e-08
4.68381e-06
4.82319e-08
4.68584e-06
4.55377e-08
4.68801e-06
4.27545e-08
4.69038e-06
3.96795e-08
3.58415e-08
4.69252e-06
5.11834e-06
2.79561e-08
5.12554e-06
5.1644e-08
5.13106e-06
5.96499e-08
5.13578e-06
6.25234e-08
5.14016e-06
6.38042e-08
5.14412e-06
6.35306e-08
5.14774e-06
6.22065e-08
5.15108e-06
6.03401e-08
5.15422e-06
5.81739e-08
5.1572e-06
5.58213e-08
5.16004e-06
5.33517e-08
5.16279e-06
5.08094e-08
5.16548e-06
4.82171e-08
5.16813e-06
4.55785e-08
5.1708e-06
4.28727e-08
5.17352e-06
4.00341e-08
5.17627e-06
3.6923e-08
3.33314e-08
5.17878e-06
5.64454e-06
2.44222e-08
5.65122e-06
4.49618e-08
5.65709e-06
5.37873e-08
5.66224e-06
5.73651e-08
5.66706e-06
5.89935e-08
5.67149e-06
5.90932e-08
5.67559e-06
5.81115e-08
5.67942e-06
5.65127e-08
5.68303e-06
5.4555e-08
5.68649e-06
5.23685e-08
5.68981e-06
5.00319e-08
5.69302e-06
4.75938e-08
5.69616e-06
4.50796e-08
5.69924e-06
4.24935e-08
5.7023e-06
3.98178e-08
5.70533e-06
3.7005e-08
5.70827e-06
3.39786e-08
3.06764e-08
5.71093e-06
4.40852e-06
2.20113e-08
4.41294e-06
4.05446e-08
4.41725e-06
4.94787e-08
4.42116e-06
5.34555e-08
4.42483e-06
5.53229e-08
4.42827e-06
5.5655e-08
4.43148e-06
5.48995e-08
4.4345e-06
5.34905e-08
4.43737e-06
5.16863e-08
4.44011e-06
4.96255e-08
4.44275e-06
4.73925e-08
4.44531e-06
4.50396e-08
4.44779e-06
4.25947e-08
4.45022e-06
4.00654e-08
4.4526e-06
3.74398e-08
4.45492e-06
3.46872e-08
4.45713e-06
3.1765e-08
2.86723e-08
4.45913e-06
5.14231e-06
1.95543e-08
5.14681e-06
3.60483e-08
5.15144e-06
4.48521e-08
5.15579e-06
4.91023e-08
5.15995e-06
5.11679e-08
5.16389e-06
5.17144e-08
5.1676e-06
5.11812e-08
5.17113e-06
4.99687e-08
5.17448e-06
4.83303e-08
5.1777e-06
4.64102e-08
5.18079e-06
4.42974e-08
5.18378e-06
4.20479e-08
5.18669e-06
3.96931e-08
5.18951e-06
3.72456e-08
5.19224e-06
3.47026e-08
5.19488e-06
3.20504e-08
5.19737e-06
2.92747e-08
2.64114e-08
5.19963e-06
5.99826e-06
1.70831e-08
6.00278e-06
3.15365e-08
6.00766e-06
3.99672e-08
6.01243e-06
4.43376e-08
6.01706e-06
4.65354e-08
6.02151e-06
4.72595e-08
6.02576e-06
4.69309e-08
6.02982e-06
4.5912e-08
6.0337e-06
4.44461e-08
6.03743e-06
4.26792e-08
6.04103e-06
4.07033e-08
6.0445e-06
3.85775e-08
6.04785e-06
3.63375e-08
6.0511e-06
3.40021e-08
6.05422e-06
3.15786e-08
6.0572e-06
2.90688e-08
6.06e-06
2.64795e-08
2.38623e-08
6.06255e-06
6.99672e-06
1.46286e-08
7.00119e-06
2.70688e-08
7.00628e-06
3.48803e-08
7.01141e-06
3.91988e-08
7.0165e-06
4.14454e-08
7.02147e-06
4.22934e-08
7.02626e-06
4.21376e-08
7.03088e-06
4.12994e-08
7.03532e-06
4.00058e-08
7.03959e-06
3.84008e-08
7.04372e-06
3.65774e-08
7.0477e-06
3.45968e-08
7.05154e-06
3.24991e-08
7.05523e-06
3.03093e-08
7.05877e-06
2.80441e-08
7.06212e-06
2.57177e-08
7.06525e-06
2.33499e-08
2.09954e-08
7.06811e-06
8.16143e-06
1.22177e-08
8.16581e-06
2.26816e-08
8.17104e-06
2.96493e-08
8.17651e-06
3.3728e-08
8.18204e-06
3.59218e-08
8.18751e-06
3.68253e-08
8.19285e-06
3.6798e-08
8.19803e-06
3.61185e-08
8.20304e-06
3.49916e-08
8.20789e-06
3.35544e-08
8.21257e-06
3.18982e-08
8.21708e-06
3.00853e-08
8.22142e-06
2.81589e-08
8.22558e-06
2.61495e-08
8.22954e-06
2.40809e-08
8.23328e-06
2.19751e-08
8.23678e-06
1.98581e-08
1.77808e-08
8.23999e-06
9.52008e-06
9.8673e-09
9.52437e-06
1.8389e-08
9.5297e-06
2.43225e-08
9.53546e-06
2.79671e-08
9.54139e-06
2.99873e-08
9.54735e-06
3.08647e-08
9.55324e-06
3.09103e-08
9.559e-06
3.03591e-08
9.5646e-06
2.93883e-08
9.57004e-06
2.81226e-08
9.57529e-06
2.66483e-08
9.58034e-06
2.50265e-08
9.5852e-06
2.33017e-08
9.58984e-06
2.15073e-08
9.59425e-06
1.96712e-08
9.59841e-06
1.78188e-08
9.60229e-06
1.59769e-08
1.41895e-08
9.60588e-06
1.1105e-05
7.5802e-09
1.11092e-05
1.41817e-08
1.11146e-05
1.89265e-08
1.11206e-05
2.19484e-08
1.11269e-05
2.36597e-08
1.11334e-05
2.44164e-08
1.11398e-05
2.44692e-08
1.11462e-05
2.40074e-08
1.11524e-05
2.31765e-08
1.11584e-05
2.20833e-08
1.11643e-05
2.08049e-08
1.11699e-05
1.93977e-08
1.11753e-05
1.79042e-08
1.11805e-05
1.63581e-08
1.11853e-05
1.47872e-08
1.11899e-05
1.32166e-08
1.11942e-05
1.16708e-08
1.01856e-08
1.11982e-05
1.29539e-05
5.34052e-09
1.2958e-05
1.00235e-08
1.29635e-05
1.34526e-08
1.29698e-05
1.56783e-08
1.29765e-05
1.69387e-08
1.29834e-05
1.74709e-08
1.29904e-05
1.74576e-08
1.29974e-05
1.70397e-08
1.30043e-05
1.63271e-08
1.30109e-05
1.54039e-08
1.30174e-05
1.4333e-08
1.30237e-05
1.31618e-08
1.30296e-05
1.19274e-08
1.30353e-05
1.06595e-08
1.30407e-05
9.38278e-09
1.30458e-05
8.11895e-09
1.30506e-05
6.88798e-09
5.71801e-09
1.30551e-05
1.51107e-05
3.10836e-09
1.51149e-05
5.84104e-09
1.51205e-05
7.83785e-09
1.5127e-05
9.11087e-09
1.51342e-05
9.78098e-09
1.51417e-05
9.98274e-09
1.51493e-05
9.82791e-09
1.5157e-05
9.40567e-09
1.51645e-05
8.78747e-09
1.51719e-05
8.02957e-09
1.5179e-05
7.17561e-09
1.51859e-05
6.25974e-09
1.51925e-05
5.3092e-09
1.51989e-05
4.34625e-09
1.52049e-05
3.38954e-09
1.52105e-05
2.45501e-09
1.52159e-05
1.55696e-09
7.16225e-10
1.52209e-05
1.76267e-05
8.11573e-10
1.76311e-05
1.50091e-09
1.7637e-05
1.93306e-09
1.7644e-05
2.10441e-09
1.76517e-05
2.05386e-09
1.76599e-05
1.82648e-09
1.76682e-05
1.46171e-09
1.76767e-05
9.93367e-10
1.7685e-05
4.50209e-10
1.76932e-05
-1.43859e-10
1.77011e-05
-7.69234e-10
1.77088e-05
-1.40969e-09
1.77161e-05
-2.05155e-09
1.77232e-05
-2.68317e-09
1.77299e-05
-3.29456e-09
1.77362e-05
-3.87709e-09
1.77422e-05
-4.42287e-09
-4.91804e-09
1.77478e-05
1.78284e-05
-1.36557e-09
1.78325e-05
-2.63318e-09
1.78382e-05
-3.72753e-09
1.78449e-05
-4.65115e-09
1.78524e-05
-5.42809e-09
1.78603e-05
-6.0944e-09
1.78685e-05
-6.67999e-09
1.78767e-05
-7.20462e-09
1.78848e-05
-7.68141e-09
1.78928e-05
-8.11918e-09
1.79005e-05
-8.52322e-09
1.7908e-05
-8.89622e-09
1.79152e-05
-9.239e-09
1.79221e-05
-9.55117e-09
1.79286e-05
-9.83168e-09
1.79348e-05
-1.00791e-08
1.79407e-05
-1.02913e-08
-1.04604e-08
1.79462e-05
1.58833e-05
-3.31401e-09
1.5887e-05
-6.34212e-09
1.58921e-05
-8.80939e-09
1.58981e-05
-1.06971e-08
1.59048e-05
-1.2095e-08
1.59118e-05
-1.31258e-08
1.5919e-05
-1.38851e-08
1.59263e-05
-1.44402e-08
1.59334e-05
-1.48417e-08
1.59404e-05
-1.5128e-08
1.59472e-05
-1.53266e-08
1.59538e-05
-1.54571e-08
1.59601e-05
-1.55329e-08
1.59661e-05
-1.55634e-08
1.59718e-05
-1.55554e-08
1.59773e-05
-1.55133e-08
1.59824e-05
-1.54397e-08
-1.53313e-08
1.59873e-05
1.41505e-05
-5.13917e-09
1.4154e-05
-9.84721e-09
1.41588e-05
-1.36038e-08
1.41644e-05
-1.63372e-08
1.41706e-05
-1.82409e-08
1.4177e-05
-1.9549e-08
1.41835e-05
-2.04204e-08
1.41901e-05
-2.09644e-08
1.41965e-05
-2.12665e-08
1.42027e-05
-2.13921e-08
1.42088e-05
-2.13879e-08
1.42146e-05
-2.12872e-08
1.42202e-05
-2.11143e-08
1.42255e-05
-2.08865e-08
1.42306e-05
-2.06168e-08
1.42354e-05
-2.03146e-08
1.42399e-05
-1.99863e-08
-1.9632e-08
1.42443e-05
1.26068e-05
-6.87961e-09
1.26102e-05
-1.3291e-08
1.26149e-05
-1.83034e-08
1.26203e-05
-2.17525e-08
1.26261e-05
-2.40354e-08
1.26321e-05
-2.55301e-08
1.26381e-05
-2.64466e-08
1.26441e-05
-2.69313e-08
1.26499e-05
-2.71044e-08
1.26556e-05
-2.70549e-08
1.26611e-05
-2.68451e-08
1.26663e-05
-2.65191e-08
1.26713e-05
-2.61094e-08
1.2676e-05
-2.56401e-08
1.26805e-05
-2.51293e-08
1.26848e-05
-2.45909e-08
1.26889e-05
-2.40351e-08
-2.34656e-08
1.26927e-05
1.12314e-05
-8.50502e-09
1.12349e-05
-1.67848e-08
1.12397e-05
-2.30433e-08
1.12449e-05
-2.70335e-08
1.12505e-05
-2.95588e-08
1.12561e-05
-3.11521e-08
1.12617e-05
-3.20447e-08
1.12672e-05
-3.24193e-08
1.12725e-05
-3.24318e-08
1.12776e-05
-3.21912e-08
1.12826e-05
-3.17707e-08
1.12873e-05
-3.12222e-08
1.12917e-05
-3.0584e-08
1.1296e-05
-2.98846e-08
1.13e-05
-2.91456e-08
1.13038e-05
-2.83838e-08
1.13074e-05
-2.7612e-08
-2.6837e-08
1.13107e-05
1.0006e-05
-9.90297e-09
1.00097e-05
-2.04495e-08
1.00146e-05
-2.7927e-08
1.00197e-05
-3.22092e-08
1.0025e-05
-3.48395e-08
1.00303e-05
-3.64489e-08
1.00355e-05
-3.72483e-08
1.00406e-05
-3.74646e-08
1.00454e-05
-3.72891e-08
1.00501e-05
-3.68439e-08
1.00545e-05
-3.62086e-08
1.00587e-05
-3.54403e-08
1.00627e-05
-3.45809e-08
1.00665e-05
-3.3662e-08
1.00701e-05
-3.27079e-08
1.00734e-05
-3.1739e-08
1.00766e-05
-3.07738e-08
-2.98281e-08
1.00796e-05
8.91406e-06
-1.08673e-08
8.91803e-06
-2.44161e-08
8.92307e-06
-3.29666e-08
8.92809e-06
-3.72281e-08
8.9331e-06
-3.98525e-08
8.93805e-06
-4.13948e-08
8.94283e-06
-4.20271e-08
8.9474e-06
-4.20425e-08
8.95178e-06
-4.16609e-08
8.95594e-06
-4.10072e-08
8.95989e-06
-4.01618e-08
8.96364e-06
-3.91837e-08
8.96717e-06
-3.81161e-08
8.9705e-06
-3.69908e-08
8.97362e-06
-3.58319e-08
8.97654e-06
-3.46597e-08
8.97926e-06
-3.34925e-08
-3.23462e-08
8.98178e-06
7.94096e-06
-1.11631e-08
7.94547e-06
-2.89252e-08
7.95052e-06
-3.80156e-08
7.95524e-06
-4.19504e-08
7.95994e-06
-4.45526e-08
7.96452e-06
-4.59653e-08
7.96885e-06
-4.63643e-08
7.97295e-06
-4.61419e-08
7.97683e-06
-4.55371e-08
7.98049e-06
-4.46694e-08
7.98395e-06
-4.36172e-08
7.9872e-06
-4.24388e-08
7.99026e-06
-4.11765e-08
7.99313e-06
-3.98605e-08
7.99581e-06
-3.85135e-08
7.99831e-06
-3.71563e-08
8.00063e-06
-3.58161e-08
-3.45372e-08
8.00282e-06
7.07291e-06
-9.74368e-09
7.07859e-06
-3.4599e-08
7.08339e-06
-4.28161e-08
7.08759e-06
-4.61514e-08
7.09183e-06
-4.87939e-08
7.09591e-06
-5.00498e-08
7.09975e-06
-5.02027e-08
7.10336e-06
-4.97491e-08
7.10675e-06
-4.89272e-08
7.10993e-06
-4.78488e-08
7.1129e-06
-4.65925e-08
7.11568e-06
-4.52177e-08
7.11827e-06
-4.3766e-08
7.12068e-06
-4.22649e-08
7.12289e-06
-4.07321e-08
7.12492e-06
-3.9178e-08
7.12671e-06
-3.76119e-08
-3.60403e-08
7.12822e-06
6.29709e-06
-4.31782e-09
6.30527e-06
-4.27797e-08
6.3101e-06
-4.76492e-08
6.31411e-06
-5.01659e-08
6.31793e-06
-5.26094e-08
6.3213e-06
-5.34154e-08
6.32428e-06
-5.31848e-08
6.32698e-06
-5.24535e-08
6.32946e-06
-5.14019e-08
6.33172e-06
-5.01154e-08
6.3338e-06
-4.86657e-08
6.33569e-06
-4.71089e-08
6.33741e-06
-4.54846e-08
6.33896e-06
-4.3818e-08
6.34035e-06
-4.21225e-08
6.34157e-06
-4.03995e-08
6.34261e-06
-3.86525e-08
-3.68902e-08
6.34346e-06
5.60106e-06
9.52026e-09
5.61058e-06
-5.23011e-08
5.61458e-06
-5.16489e-08
5.6189e-06
-5.44818e-08
5.62275e-06
-5.64552e-08
5.62558e-06
-5.62524e-08
5.62757e-06
-5.51746e-08
5.6289e-06
-5.37855e-08
5.6297e-06
-5.22012e-08
5.63006e-06
-5.04747e-08
5.63005e-06
-4.86579e-08
5.62974e-06
-4.67924e-08
5.62916e-06
-4.49072e-08
5.62836e-06
-4.30193e-08
5.62737e-06
-4.11331e-08
5.6262e-06
-3.92294e-08
5.6248e-06
-3.72507e-08
-3.49374e-08
5.62285e-06
5.00884e-06
2.98387e-09
5.00511e-06
-4.85652e-08
4.99663e-06
-4.31698e-08
4.98994e-06
-4.77963e-08
4.9831e-06
-4.9611e-08
4.9757e-06
-4.88566e-08
4.96772e-06
-4.7187e-08
4.95913e-06
-4.52024e-08
4.95001e-06
-4.30768e-08
4.94043e-06
-4.08997e-08
4.93051e-06
-3.87328e-08
4.92033e-06
-3.66154e-08
4.90999e-06
-3.45699e-08
4.89958e-06
-3.26068e-08
4.88917e-06
-3.07252e-08
4.87885e-06
-2.89042e-08
4.86868e-06
-2.7077e-08
-2.48091e-08
4.85855e-06
4.45953e-06
4.41097e-06
4.3678e-06
4.32e-06
4.27039e-06
4.22153e-06
4.17435e-06
4.12914e-06
4.08607e-06
4.04517e-06
4.00644e-06
3.96982e-06
3.93525e-06
3.90264e-06
3.87192e-06
3.84301e-06
3.81594e-06
3.79113e-06
1.32755e-08
-1.32755e-08
2.53274e-08
-1.20481e-08
3.15274e-08
-6.19794e-09
3.10002e-08
5.28745e-10
2.41083e-08
6.89358e-09
1.184e-08
1.22693e-08
-4.68458e-09
1.65259e-08
-2.44015e-08
1.97181e-08
-4.64094e-08
2.20087e-08
-7.01823e-08
2.37737e-08
-9.54273e-08
2.52456e-08
-1.21952e-07
2.65252e-08
-1.49603e-07
2.76519e-08
-1.78244e-07
2.86409e-08
-2.07744e-07
2.95005e-08
-2.37982e-07
3.02384e-08
-2.68845e-07
3.08638e-08
-3.00232e-07
3.13872e-08
-3.32051e-07
3.182e-08
-3.64224e-07
3.21735e-08
-3.96683e-07
3.24591e-08
-4.2937e-07
3.26871e-08
-4.62237e-07
3.28673e-08
-4.95245e-07
3.30086e-08
-5.28363e-07
3.31188e-08
-5.61568e-07
3.32047e-08
-5.9484e-07
3.32721e-08
-6.28166e-07
3.33262e-08
-6.61537e-07
3.3371e-08
-6.94947e-07
3.34099e-08
-7.28392e-07
3.34455e-08
-7.61872e-07
3.34798e-08
-7.95387e-07
3.35142e-08
-8.28937e-07
3.35497e-08
-8.62524e-07
3.35868e-08
-8.9615e-07
3.36258e-08
-9.29817e-07
3.3667e-08
-9.63529e-07
3.37107e-08
-9.97286e-07
3.37572e-08
-1.03109e-06
3.38075e-08
-1.06496e-06
3.38661e-08
-1.09891e-06
3.39467e-08
-1.13296e-06
3.40576e-08
-1.16716e-06
3.41905e-08
-1.20149e-06
3.43359e-08
-1.23598e-06
3.44878e-08
-1.27062e-06
3.4642e-08
-1.30541e-06
3.4795e-08
-1.34036e-06
3.49443e-08
-1.37544e-06
3.50873e-08
-1.41067e-06
3.5222e-08
-1.44601e-06
3.53465e-08
-1.48147e-06
3.54589e-08
-1.51703e-06
3.55575e-08
-1.55267e-06
3.56407e-08
-1.58838e-06
3.57068e-08
-1.62413e-06
3.57543e-08
-1.65991e-06
3.57817e-08
-1.6957e-06
3.57875e-08
-1.73147e-06
3.57702e-08
-1.7672e-06
3.57284e-08
-1.80286e-06
3.56607e-08
-1.83843e-06
3.55657e-08
-1.87387e-06
3.54421e-08
-1.90916e-06
3.52884e-08
-1.94426e-06
3.51034e-08
-1.97915e-06
3.48855e-08
-2.01378e-06
3.46334e-08
-2.04813e-06
3.43455e-08
-2.08215e-06
3.40204e-08
-2.1158e-06
3.36565e-08
-2.14906e-06
3.32524e-08
-2.18186e-06
3.28061e-08
-2.21418e-06
3.23162e-08
-2.24596e-06
3.17807e-08
-2.27716e-06
3.11978e-08
-2.30772e-06
3.05656e-08
-2.3376e-06
2.98822e-08
-2.36675e-06
2.91455e-08
-2.3951e-06
2.83536e-08
-2.42261e-06
2.75046e-08
-2.44921e-06
2.65963e-08
-2.47483e-06
2.56272e-08
-2.49943e-06
2.45953e-08
-2.52293e-06
2.34994e-08
-2.54527e-06
2.23383e-08
-2.56638e-06
2.11113e-08
-2.5862e-06
1.98181e-08
-2.60466e-06
1.84588e-08
-2.62169e-06
1.7034e-08
-2.63723e-06
1.55451e-08
-2.65123e-06
1.39936e-08
-2.66361e-06
1.23821e-08
-2.67432e-06
1.07137e-08
-2.68331e-06
8.99195e-09
-2.69053e-06
7.22092e-09
-2.69594e-06
5.40491e-09
-2.69949e-06
3.54778e-09
-2.70114e-06
1.65222e-09
-2.70086e-06
-2.81521e-10
-2.69863e-06
-2.23158e-09
-2.69445e-06
-4.17743e-09
-2.68833e-06
-6.12194e-09
-2.68026e-06
-8.06361e-09
-2.67026e-06
-1.00001e-08
-2.65833e-06
-1.19285e-08
-2.64449e-06
-1.38458e-08
-2.62874e-06
-1.57488e-08
-2.6111e-06
-1.76342e-08
-2.5916e-06
-1.94988e-08
-2.57027e-06
-2.1339e-08
-2.54711e-06
-2.31514e-08
-2.52218e-06
-2.49321e-08
-2.49551e-06
-2.66773e-08
-2.46712e-06
-2.83831e-08
-2.43708e-06
-3.00456e-08
-2.40541e-06
-3.16612e-08
-2.37219e-06
-3.32261e-08
-2.33745e-06
-3.47366e-08
-2.30126e-06
-3.61894e-08
-2.26368e-06
-3.75813e-08
-2.22477e-06
-3.89095e-08
-2.1846e-06
-4.01719e-08
-2.14323e-06
-4.13664e-08
-2.10074e-06
-4.24912e-08
-2.0572e-06
-4.35444e-08
-2.01267e-06
-4.45245e-08
-1.96724e-06
-4.54299e-08
-1.92098e-06
-4.62596e-08
-1.87397e-06
-4.70136e-08
-1.82627e-06
-4.76925e-08
-1.77798e-06
-4.8298e-08
-1.72914e-06
-4.88317e-08
-1.67985e-06
-4.92947e-08
-1.63016e-06
-4.96874e-08
-1.58015e-06
-5.00111e-08
-1.52988e-06
-5.02686e-08
-1.47942e-06
-5.0464e-08
-1.42882e-06
-5.06024e-08
-1.37813e-06
-5.06881e-08
-1.32741e-06
-5.07226e-08
-1.2767e-06
-5.07081e-08
-1.22605e-06
-5.06494e-08
-1.1755e-06
-5.05538e-08
-1.12507e-06
-5.04305e-08
-1.07479e-06
-5.02816e-08
-1.02468e-06
-5.01058e-08
-9.7477e-07
-4.99102e-08
-9.25061e-07
-4.97081e-08
-8.75552e-07
-4.9508e-08
-8.26248e-07
-4.93043e-08
-7.7715e-07
-4.90968e-08
-7.28239e-07
-4.89092e-08
-6.79486e-07
-4.87526e-08
-6.30878e-07
-4.86089e-08
-5.82398e-07
-4.84812e-08
-5.33981e-07
-4.84156e-08
-4.85588e-07
-4.83924e-08
-4.37213e-07
-4.83762e-08
-3.88752e-07
-4.84615e-08
-3.40155e-07
-4.85966e-08
-2.91409e-07
-4.87456e-08
-2.42364e-07
-4.90451e-08
-1.93021e-07
-4.93443e-08
-1.43352e-07
-4.96685e-08
-9.32001e-08
-5.01478e-08
-4.24984e-08
-5.0702e-08
8.91867e-09
-5.1418e-08
6.06885e-08
-5.17677e-08
1.1249e-07
-5.18009e-08
1.64609e-07
-5.21189e-08
2.17213e-07
-5.26002e-08
2.70329e-07
-5.31158e-08
3.23869e-07
-5.35386e-08
3.77574e-07
-5.37037e-08
4.30751e-07
-5.3178e-08
4.8225e-07
-5.14994e-08
5.28405e-07
-4.61573e-08
5.64636e-07
-3.62342e-08
-2.51429e-10
5.64886e-07
4.46537e-09
-1.77373e-08
1.95259e-09
-9.53062e-09
-6.20206e-09
1.95934e-09
-1.8201e-08
1.25295e-08
-3.29985e-08
2.16929e-08
-5.01694e-08
2.94417e-08
-6.94518e-08
3.58096e-08
-9.06376e-08
4.0905e-08
-1.13578e-07
4.49504e-08
-1.38034e-07
4.82301e-08
-1.63744e-07
5.09567e-08
-1.90488e-07
5.32696e-08
-2.18088e-07
5.52517e-08
-2.46399e-07
5.69529e-08
-2.75305e-07
5.84066e-08
-3.04705e-07
5.96387e-08
-3.34513e-07
6.06725e-08
-3.64656e-07
6.15303e-08
-3.95069e-07
6.22336e-08
-4.25699e-07
6.28033e-08
-4.56498e-07
6.3259e-08
-4.8743e-07
6.36193e-08
-5.18463e-07
6.39014e-08
-5.49575e-07
6.41205e-08
-5.80746e-07
6.42904e-08
-6.11965e-07
6.44233e-08
-6.43222e-07
6.45295e-08
-6.74513e-07
6.4618e-08
-7.05839e-07
6.46962e-08
-7.372e-07
6.47704e-08
-7.686e-07
6.48455e-08
-8.00046e-07
6.49252e-08
-8.31545e-07
6.50127e-08
-8.63106e-07
6.51099e-08
-8.94738e-07
6.52185e-08
-9.26452e-07
6.53394e-08
-9.58259e-07
6.54734e-08
-9.9017e-07
6.56211e-08
-1.0222e-06
6.57831e-08
-1.05435e-06
6.59607e-08
-1.08664e-06
6.6157e-08
-1.11907e-06
6.63765e-08
-1.15163e-06
6.66197e-08
-1.18432e-06
6.68811e-08
-1.21714e-06
6.71538e-08
-1.25008e-06
6.74317e-08
-1.28315e-06
6.77092e-08
-1.31634e-06
6.79816e-08
-1.34964e-06
6.82444e-08
-1.38304e-06
6.84936e-08
-1.41654e-06
6.87255e-08
-1.45013e-06
6.89364e-08
-1.4838e-06
6.91229e-08
-1.51752e-06
6.92818e-08
-1.55129e-06
6.941e-08
-1.58509e-06
6.95042e-08
-1.6189e-06
6.95617e-08
-1.65269e-06
6.95794e-08
-1.68646e-06
6.95545e-08
-1.72018e-06
6.94842e-08
-1.75382e-06
6.93659e-08
-1.78735e-06
6.91968e-08
-1.82076e-06
6.89744e-08
-1.85402e-06
6.86959e-08
-1.88709e-06
6.83587e-08
-1.91994e-06
6.79601e-08
-1.95256e-06
6.74974e-08
-1.98489e-06
6.69678e-08
-2.01691e-06
6.63685e-08
-2.04859e-06
6.56965e-08
-2.07988e-06
6.4949e-08
-2.11075e-06
6.41226e-08
-2.14116e-06
6.32142e-08
-2.17106e-06
6.22204e-08
-2.20042e-06
6.11375e-08
-2.22918e-06
5.99619e-08
-2.25731e-06
5.86897e-08
-2.28474e-06
5.73171e-08
-2.31144e-06
5.58401e-08
-2.33734e-06
5.42546e-08
-2.36239e-06
5.25568e-08
-2.38654e-06
5.07427e-08
-2.40972e-06
4.88087e-08
-2.43188e-06
4.67512e-08
-2.45295e-06
4.45675e-08
-2.47286e-06
4.22551e-08
-2.49156e-06
3.98124e-08
-2.50898e-06
3.72386e-08
-2.52506e-06
3.45339e-08
-2.53972e-06
3.16995e-08
-2.55292e-06
2.87377e-08
-2.56457e-06
2.56523e-08
-2.57464e-06
2.24479e-08
-2.58306e-06
1.91307e-08
-2.58977e-06
1.57078e-08
-2.59474e-06
1.21873e-08
-2.59791e-06
8.57729e-09
-2.59925e-06
4.88436e-09
-2.59871e-06
1.11229e-09
-2.59627e-06
-2.71509e-09
-2.59195e-06
-6.55836e-09
-2.58572e-06
-1.04003e-08
-2.57761e-06
-1.42398e-08
-2.5676e-06
-1.80731e-08
-2.5557e-06
-2.18952e-08
-2.54193e-06
-2.57005e-08
-2.52629e-06
-2.9483e-08
-2.5088e-06
-3.32364e-08
-2.48948e-06
-3.69542e-08
-2.46835e-06
-4.06297e-08
-2.44543e-06
-4.42559e-08
-2.42076e-06
-4.78258e-08
-2.39436e-06
-5.13322e-08
-2.36627e-06
-5.47678e-08
-2.33653e-06
-5.81251e-08
-2.30518e-06
-6.13964e-08
-2.27226e-06
-6.45744e-08
-2.23784e-06
-6.76513e-08
-2.20195e-06
-7.06202e-08
-2.16467e-06
-7.34745e-08
-2.12604e-06
-7.62085e-08
-2.08613e-06
-7.88169e-08
-2.04501e-06
-8.12951e-08
-2.00274e-06
-8.36392e-08
-1.95939e-06
-8.58458e-08
-1.91502e-06
-8.79118e-08
-1.86971e-06
-8.98339e-08
-1.82353e-06
-9.16094e-08
-1.77655e-06
-9.32366e-08
-1.72885e-06
-9.47155e-08
-1.68049e-06
-9.60478e-08
-1.63156e-06
-9.7236e-08
-1.5821e-06
-9.82839e-08
-1.5322e-06
-9.91938e-08
-1.48192e-06
-9.99673e-08
-1.43132e-06
-1.00607e-07
-1.38047e-06
-1.0112e-07
-1.32942e-06
-1.01512e-07
-1.27823e-06
-1.01794e-07
-1.22694e-06
-1.01974e-07
-1.17561e-06
-1.02057e-07
-1.12427e-06
-1.02046e-07
-1.07297e-06
-1.01952e-07
-1.02173e-06
-1.01788e-07
-9.70592e-07
-1.01571e-07
-9.19566e-07
-1.01308e-07
-8.68675e-07
-1.00997e-07
-8.17936e-07
-1.00649e-07
-7.67353e-07
-1.00291e-07
-7.16922e-07
-9.99391e-08
-6.6664e-07
-9.95854e-08
-6.16505e-07
-9.92306e-08
-5.665e-07
-9.89158e-08
-5.16592e-07
-9.86616e-08
-4.66761e-07
-9.84389e-08
-4.16983e-07
-9.8257e-08
-3.67208e-07
-9.81907e-08
-3.17388e-07
-9.82129e-08
-2.67491e-07
-9.82726e-08
-2.17452e-07
-9.84999e-08
-1.672e-07
-9.88479e-08
-1.16691e-07
-9.92563e-08
-6.58727e-08
-9.98605e-08
-1.45887e-08
-1.00626e-07
3.71523e-08
-1.01412e-07
8.92182e-08
-1.02215e-07
1.41694e-07
-1.03178e-07
1.947e-07
-1.04427e-07
2.48307e-07
-1.05376e-07
3.02542e-07
-1.06037e-07
3.57391e-07
-1.06973e-07
4.12842e-07
-1.08052e-07
4.68862e-07
-1.09139e-07
5.25336e-07
-1.10016e-07
5.81983e-07
-1.10351e-07
6.38279e-07
-1.09474e-07
6.93149e-07
-1.06366e-07
7.45091e-07
-9.80976e-08
7.90329e-07
-8.14681e-08
-4.15191e-08
8.31598e-07
-6.92385e-09
-1.08111e-08
-2.03392e-08
3.88778e-09
-3.59814e-08
1.76027e-08
-5.27409e-08
2.929e-08
-7.0517e-08
3.94696e-08
-8.93627e-08
4.82879e-08
-1.09359e-07
5.58063e-08
-1.30567e-07
6.21138e-08
-1.52976e-07
6.73595e-08
-1.76473e-07
7.17277e-08
-2.00905e-07
7.53885e-08
-2.26113e-07
7.84778e-08
-2.51957e-07
8.10966e-08
-2.78322e-07
8.33183e-08
-3.05114e-07
8.5198e-08
-3.32254e-07
8.67797e-08
-3.59682e-07
8.81007e-08
-3.87346e-07
8.91944e-08
-4.15204e-07
9.00914e-08
-4.4322e-07
9.08201e-08
-4.71368e-07
9.14069e-08
-4.99624e-07
9.18759e-08
-5.27971e-07
9.22492e-08
-5.56397e-07
9.25466e-08
-5.84893e-07
9.27858e-08
-6.13452e-07
9.29824e-08
-6.42072e-07
9.31497e-08
-6.70753e-07
9.32993e-08
-6.99498e-07
9.34408e-08
-7.2831e-07
9.35822e-08
-7.57194e-07
9.37299e-08
-7.86158e-07
9.38889e-08
-8.15209e-07
9.40631e-08
-8.44355e-07
9.42553e-08
-8.73604e-07
9.44673e-08
-9.02965e-07
9.47003e-08
-9.32447e-07
9.49549e-08
-9.62057e-07
9.52312e-08
-9.91803e-07
9.55291e-08
-1.02169e-06
9.58483e-08
-1.05172e-06
9.61887e-08
-1.0819e-06
9.65499e-08
-1.11221e-06
9.69292e-08
-1.14265e-06
9.73216e-08
-1.17321e-06
9.77211e-08
-1.2039e-06
9.81215e-08
-1.23471e-06
9.85168e-08
-1.26563e-06
9.89011e-08
-1.29665e-06
9.92689e-08
-1.32777e-06
9.96148e-08
-1.35898e-06
9.99337e-08
-1.39027e-06
1.00221e-07
-1.42161e-06
1.00471e-07
-1.45301e-06
1.0068e-07
-1.48445e-06
1.00843e-07
-1.5159e-06
1.00956e-07
-1.54735e-06
1.01015e-07
-1.57879e-06
1.01015e-07
-1.61018e-06
1.00952e-07
-1.64152e-06
1.00823e-07
-1.67278e-06
1.00623e-07
-1.70393e-06
1.00349e-07
-1.73496e-06
9.99963e-08
-1.76582e-06
9.95619e-08
-1.7965e-06
9.90417e-08
-1.82698e-06
9.84318e-08
-1.85721e-06
9.77285e-08
-1.88717e-06
9.69275e-08
-1.91682e-06
9.60249e-08
-1.94614e-06
9.50164e-08
-1.97509e-06
9.38977e-08
-2.00363e-06
9.26642e-08
-2.03173e-06
9.1311e-08
-2.05934e-06
8.98332e-08
-2.08643e-06
8.82255e-08
-2.11295e-06
8.64824e-08
-2.13886e-06
8.45981e-08
-2.16411e-06
8.25669e-08
-2.18865e-06
8.03827e-08
-2.21244e-06
7.80396e-08
-2.23541e-06
7.55314e-08
-2.25752e-06
7.28522e-08
-2.27871e-06
6.99963e-08
-2.29892e-06
6.69584e-08
-2.31808e-06
6.3734e-08
-2.33615e-06
6.03192e-08
-2.35305e-06
5.67113e-08
-2.36872e-06
5.29088e-08
-2.38309e-06
4.89116e-08
-2.39612e-06
4.47213e-08
-2.40772e-06
4.0341e-08
-2.41784e-06
3.5776e-08
-2.42643e-06
3.10334e-08
-2.43342e-06
2.6122e-08
-2.43876e-06
2.10527e-08
-2.44241e-06
1.58373e-08
-2.44433e-06
1.04887e-08
-2.44446e-06
5.01839e-09
-2.44278e-06
-5.63402e-10
-2.43929e-06
-6.21125e-09
-2.43397e-06
-1.18752e-08
-2.42683e-06
-1.75434e-08
-2.41786e-06
-2.32088e-08
-2.40707e-06
-2.88646e-08
-2.39446e-06
-3.45033e-08
-2.38004e-06
-4.01166e-08
-2.36383e-06
-4.56955e-08
-2.34583e-06
-5.12308e-08
-2.32608e-06
-5.67128e-08
-2.30457e-06
-6.21315e-08
-2.28135e-06
-6.74767e-08
-2.25644e-06
-7.27379e-08
-2.22987e-06
-7.79045e-08
-2.20167e-06
-8.29659e-08
-2.17188e-06
-8.79112e-08
-2.14055e-06
-9.27291e-08
-2.10772e-06
-9.74086e-08
-2.07343e-06
-1.01939e-07
-2.03774e-06
-1.06309e-07
-2.00071e-06
-1.10509e-07
-1.96239e-06
-1.14531e-07
-1.92283e-06
-1.18368e-07
-1.88212e-06
-1.22012e-07
-1.8403e-06
-1.25459e-07
-1.79744e-06
-1.28703e-07
-1.75361e-06
-1.31741e-07
-1.70888e-06
-1.34567e-07
-1.66331e-06
-1.37177e-07
-1.61698e-06
-1.3957e-07
-1.56995e-06
-1.41744e-07
-1.52229e-06
-1.43704e-07
-1.47407e-06
-1.45452e-07
-1.42536e-06
-1.46996e-07
-1.37622e-06
-1.48338e-07
-1.3267e-06
-1.49482e-07
-1.27688e-06
-1.50431e-07
-1.22681e-06
-1.51194e-07
-1.17653e-06
-1.51783e-07
-1.12612e-06
-1.52211e-07
-1.0756e-06
-1.52494e-07
-1.02502e-06
-1.52637e-07
-9.74421e-07
-1.52645e-07
-9.23839e-07
-1.52533e-07
-8.73306e-07
-1.52321e-07
-8.2284e-07
-1.52037e-07
-7.7246e-07
-1.51688e-07
-7.22184e-07
-1.51273e-07
-6.72024e-07
-1.50808e-07
-6.21984e-07
-1.50331e-07
-5.72056e-07
-1.49867e-07
-5.22234e-07
-1.49407e-07
-4.72514e-07
-1.4895e-07
-4.22876e-07
-1.48554e-07
-3.73289e-07
-1.48249e-07
-3.23728e-07
-1.48e-07
-2.74166e-07
-1.47819e-07
-2.24558e-07
-1.47799e-07
-1.74854e-07
-1.47917e-07
-1.25005e-07
-1.48121e-07
-7.49741e-08
-1.48531e-07
-2.46731e-08
-1.49149e-07
2.59649e-08
-1.49895e-07
7.68797e-08
-1.50775e-07
1.28107e-07
-1.51853e-07
1.79763e-07
-1.53069e-07
2.31898e-07
-1.5435e-07
2.8455e-07
-1.55831e-07
3.37725e-07
-1.57603e-07
3.91577e-07
-1.59228e-07
4.46216e-07
-1.60675e-07
5.01565e-07
-1.62322e-07
5.57585e-07
-1.64071e-07
6.14211e-07
-1.65764e-07
6.71316e-07
-1.67122e-07
7.28656e-07
-1.6769e-07
7.85816e-07
-1.66635e-07
8.42094e-07
-1.62645e-07
8.96786e-07
-1.52791e-07
9.49046e-07
-1.33728e-07
-9.59257e-08
1.00345e-06
-1.5187e-08
4.37765e-09
-3.40072e-08
2.2711e-08
-5.32223e-08
3.68187e-08
-7.26076e-08
4.86759e-08
-9.22128e-08
5.90752e-08
-1.12164e-07
6.82395e-08
-1.32602e-07
7.62447e-08
-1.5364e-07
8.3152e-08
-1.75332e-07
8.90519e-08
-1.97667e-07
9.40626e-08
-2.20588e-07
9.83093e-08
-2.44017e-07
1.01908e-07
-2.67877e-07
1.04956e-07
-2.92094e-07
1.07536e-07
-3.16609e-07
1.09713e-07
-3.41371e-07
1.11542e-07
-3.66341e-07
1.13071e-07
-3.91486e-07
1.1434e-07
-4.16782e-07
1.15387e-07
-4.42208e-07
1.16246e-07
-4.67749e-07
1.16948e-07
-4.93393e-07
1.1752e-07
-5.19132e-07
1.17988e-07
-5.4496e-07
1.18375e-07
-5.70873e-07
1.187e-07
-5.96871e-07
1.18981e-07
-6.22954e-07
1.19233e-07
-6.49124e-07
1.19469e-07
-6.75385e-07
1.19701e-07
-7.01741e-07
1.19938e-07
-7.28196e-07
1.20186e-07
-7.54758e-07
1.20451e-07
-7.81432e-07
1.20737e-07
-8.08225e-07
1.21048e-07
-8.35143e-07
1.21385e-07
-8.62192e-07
1.21749e-07
-8.89377e-07
1.2214e-07
-9.16703e-07
1.22557e-07
-9.44173e-07
1.22999e-07
-9.7179e-07
1.23465e-07
-9.99554e-07
1.23952e-07
-1.02746e-06
1.24456e-07
-1.05551e-06
1.24975e-07
-1.08368e-06
1.25501e-07
-1.11199e-06
1.26029e-07
-1.14042e-06
1.26553e-07
-1.16897e-06
1.27066e-07
-1.19763e-06
1.27561e-07
-1.22639e-06
1.28031e-07
-1.25525e-06
1.2847e-07
-1.28419e-06
1.28873e-07
-1.3132e-06
1.29232e-07
-1.34227e-06
1.29542e-07
-1.37139e-06
1.29797e-07
-1.40053e-06
1.29991e-07
-1.4297e-06
1.30119e-07
-1.45886e-06
1.30176e-07
-1.488e-06
1.30155e-07
-1.5171e-06
1.30053e-07
-1.54614e-06
1.29863e-07
-1.5751e-06
1.29582e-07
-1.60396e-06
1.29203e-07
-1.63268e-06
1.28723e-07
-1.66126e-06
1.28135e-07
-1.68965e-06
1.27437e-07
-1.71784e-06
1.26622e-07
-1.7458e-06
1.25685e-07
-1.77349e-06
1.24622e-07
-1.8009e-06
1.23427e-07
-1.82798e-06
1.22096e-07
-1.8547e-06
1.20621e-07
-1.88103e-06
1.18998e-07
-1.90694e-06
1.1722e-07
-1.93239e-06
1.15281e-07
-1.95734e-06
1.13173e-07
-1.98174e-06
1.1089e-07
-2.00557e-06
1.08424e-07
-2.02877e-06
1.05767e-07
-2.0513e-06
1.02911e-07
-2.07311e-06
9.98484e-08
-2.09415e-06
9.65705e-08
-2.11436e-06
9.30692e-08
-2.1337e-06
8.93368e-08
-2.15211e-06
8.5366e-08
-2.16953e-06
8.11503e-08
-2.18589e-06
7.66842e-08
-2.20115e-06
7.19636e-08
-2.21522e-06
6.69859e-08
-2.22806e-06
6.17506e-08
-2.2396e-06
5.62592e-08
-2.24977e-06
5.05158e-08
-2.25852e-06
4.45268e-08
-2.26579e-06
3.83015e-08
-2.27152e-06
3.18517e-08
-2.27566e-06
2.51916e-08
-2.27816e-06
1.83375e-08
-2.27898e-06
1.13063e-08
-2.27807e-06
4.11496e-09
-2.27543e-06
-3.20673e-09
-2.27104e-06
-1.06005e-08
-2.2649e-06
-1.80182e-08
-2.257e-06
-2.5443e-08
-2.24734e-06
-3.28647e-08
-2.23593e-06
-4.02736e-08
-2.22278e-06
-4.76595e-08
-2.20788e-06
-5.50114e-08
-2.19126e-06
-6.23178e-08
-2.17293e-06
-6.95664e-08