/*--------------------------------*- C++ -*----------------------------------*\
| =========                 |                                                 |
| \\      /  F ield         | OpenFOAM: The Open Source CFD Toolbox           |
|  \\    /   O peration     | Version:  2.2.x                                 |
|   \\  /    A nd           | Web:      www.OpenFOAM.org                      |
|    \\/     M anipulation  |                                                 |
\*---------------------------------------------------------------------------*/
FoamFile
{
    version     2.0;
    format      ascii;
    class       volVectorField;
    location    "700";
    object      U;
}
// * * * * * * * * * * * * * * * * * * * * * * * * * * * * * * * * * * * * * //

dimensions      [0 1 -1 0 0 0 0];

internalField   nonuniform List<vector> 
12225
(
(9.83972 -1.23842 0)
(9.73872 -0.73149 0)
(9.53698 -0.467335 0)
(9.32318 -0.307408 0)
(9.12438 -0.20596 0)
(8.9408 -0.1396 0)
(8.7707 -0.0949555 0)
(8.61333 -0.0642664 0)
(8.46792 -0.0428306 0)
(8.33353 -0.0276718 0)
(8.20924 -0.0168485 0)
(8.09419 -0.00906629 0)
(7.98763 -0.00344504 0)
(7.88885 0.000628748 0)
(7.79713 0.00361439 0)
(7.71161 0.00604315 0)
(7.62642 0.00948088 0)
(7.56121 -0.0194296 0)
(10.0335 0.447389 0)
(10.0226 0.42693 0)
(9.98834 0.340233 0)
(9.94294 0.270975 0)
(9.89658 0.217799 0)
(9.84854 0.177209 0)
(9.79811 0.146653 0)
(9.74598 0.123663 0)
(9.69305 0.106214 0)
(9.63998 0.0928168 0)
(9.58727 0.0823993 0)
(9.53533 0.0741892 0)
(9.4845 0.0676292 0)
(9.43502 0.0623266 0)
(9.38704 0.0580516 0)
(9.34076 0.0549347 0)
(9.29768 0.054169 0)
(9.2632 0.0680777 0)
(9.9929 0.0267772 0)
(10.0022 -0.00877306 0)
(10.0178 -0.0275868 0)
(10.0247 -0.022455 0)
(10.0278 -0.0110963 0)
(10.0281 0.000216682 0)
(10.0255 0.0102916 0)
(10.0204 0.0188216 0)
(10.0135 0.0257736 0)
(10.0054 0.0312912 0)
(9.9963 0.0355855 0)
(9.98647 0.0388673 0)
(9.97615 0.0413255 0)
(9.96553 0.0431336 0)
(9.95481 0.0444829 0)
(9.94436 0.0456629 0)
(9.9353 0.0468277 0)
(9.92792 0.0448554 0)
(9.99998 0.0196741 0)
(10.0123 0.0433496 0)
(10.0308 0.0556673 0)
(10.0411 0.0652684 0)
(10.0483 0.0706315 0)
(10.0544 0.0723591 0)
(10.0591 0.0721299 0)
(10.0629 0.0709749 0)
(10.0659 0.0693848 0)
(10.0683 0.067615 0)
(10.0703 0.0658059 0)
(10.072 0.064028 0)
(10.0734 0.0623104 0)
(10.0746 0.0606662 0)
(10.0758 0.0591101 0)
(10.0772 0.0576441 0)
(10.0796 0.0560034 0)
(10.0829 0.0525457 0)
(10.0023 0.0186704 0)
(10.0144 0.0407938 0)
(10.0302 0.0467973 0)
(10.0404 0.0491707 0)
(10.0485 0.0505654 0)
(10.0561 0.0510847 0)
(10.0629 0.0512444 0)
(10.0691 0.0513413 0)
(10.0747 0.0514163 0)
(10.0799 0.0514427 0)
(10.0847 0.0513945 0)
(10.0894 0.0512513 0)
(10.0938 0.0509954 0)
(10.0981 0.0506109 0)
(10.1024 0.0500741 0)
(10.1069 0.0493045 0)
(10.1118 0.0479919 0)
(10.1169 0.0451633 0)
(10.0025 0.0189127 0)
(10.0131 0.0369779 0)
(10.0269 0.0431859 0)
(10.0373 0.0464908 0)
(10.0459 0.049191 0)
(10.0539 0.0509798 0)
(10.0613 0.0520494 0)
(10.0681 0.0526733 0)
(10.0744 0.0529756 0)
(10.0804 0.0530133 0)
(10.0861 0.052827 0)
(10.0915 0.0524452 0)
(10.0968 0.0518819 0)
(10.102 0.0511345 0)
(10.1072 0.0501726 0)
(10.1125 0.0489004 0)
(10.1178 0.0470796 0)
(10.1232 0.0442566 0)
(10.0022 0.0166125 0)
(10.0111 0.0317044 0)
(10.0232 0.0386686 0)
(10.0334 0.0426266 0)
(10.042 0.0455477 0)
(10.0502 0.0474221 0)
(10.0577 0.0484845 0)
(10.0647 0.0490425 0)
(10.0713 0.0492633 0)
(10.0776 0.0492261 0)
(10.0836 0.0489761 0)
(10.0893 0.0485383 0)
(10.095 0.0479187 0)
(10.1005 0.0471032 0)
(10.1059 0.0460492 0)
(10.1113 0.0446654 0)
(10.1166 0.0427874 0)
(10.1218 0.0402094 0)
(10.0019 0.0146586 0)
(10.0095 0.0280474 0)
(10.0202 0.0353133 0)
(10.0299 0.0395396 0)
(10.0384 0.0425141 0)
(10.0464 0.0444605 0)
(10.054 0.0456139 0)
(10.061 0.0462498 0)
(10.0677 0.0465287 0)
(10.0741 0.0465295 0)
(10.0802 0.0462966 0)
(10.086 0.0458539 0)
(10.0918 0.0452065 0)
(10.0973 0.0443404 0)
(10.1028 0.0432178 0)
(10.1081 0.0417683 0)
(10.1133 0.03989 0)
(10.1183 0.0375079 0)
(10.0017 0.013072 0)
(10.0082 0.0250835 0)
(10.0178 0.0322454 0)
(10.0268 0.0365674 0)
(10.0351 0.0395699 0)
(10.0429 0.041567 0)
(10.0504 0.042785 0)
(10.0574 0.0434699 0)
(10.0641 0.0437759 0)
(10.0705 0.0437848 0)
(10.0766 0.0435437 0)
(10.0825 0.0430782 0)
(10.0883 0.0423954 0)
(10.0938 0.0414844 0)
(10.0992 0.0403152 0)
(10.1045 0.038838 0)
(10.1095 0.0369913 0)
(10.1143 0.0347682 0)
(10.0015 0.0115148 0)
(10.0071 0.0221252 0)
(10.0154 0.0289691 0)
(10.0237 0.0332873 0)
(10.0316 0.0362807 0)
(10.0392 0.038299 0)
(10.0464 0.0395586 0)
(10.0534 0.0402771 0)
(10.06 0.040601 0)
(10.0663 0.0406134 0)
(10.0724 0.0403635 0)
(10.0783 0.0398788 0)
(10.084 0.0391689 0)
(10.0895 0.0382283 0)
(10.0948 0.0370375 0)
(10.0999 0.0355672 0)
(10.1048 0.0337892 0)
(10.1094 0.0317355 0)
(10.0013 0.00996346 0)
(10.006 0.019171 0)
(10.0131 0.0255341 0)
(10.0207 0.0297295 0)
(10.0281 0.0326449 0)
(10.0353 0.0346307 0)
(10.0423 0.0358915 0)
(10.049 0.0366163 0)
(10.0555 0.0369401 0)
(10.0617 0.0369451 0)
(10.0678 0.036681 0)
(10.0735 0.036177 0)
(10.0791 0.0354463 0)
(10.0845 0.03449 0)
(10.0897 0.0333003 0)
(10.0946 0.0318663 0)
(10.0993 0.0301844 0)
(10.1037 0.0283038 0)
(10.0011 0.00843038 0)
(10.005 0.0162588 0)
(10.0111 0.021988 0)
(10.0179 0.0259249 0)
(10.0248 0.02868 0)
(10.0315 0.0305709 0)
(10.0382 0.0317851 0)
(10.0446 0.0324828 0)
(10.0509 0.0327843 0)
(10.0569 0.0327678 0)
(10.0628 0.0324826 0)
(10.0684 0.0319595 0)
(10.0738 0.0312159 0)
(10.079 0.0302598 0)
(10.084 0.0290943 0)
(10.0888 0.0277232 0)
(10.0932 0.0261583 0)
(10.0975 0.0244535 0)
(10.0009 0.00693095 0)
(10.0042 0.0134076 0)
(10.0094 0.0183659 0)
(10.0154 0.0219021 0)
(10.0217 0.0244026 0)
(10.0279 0.0261269 0)
(10.0342 0.0272378 0)
(10.0403 0.0278677 0)
(10.0463 0.0281194 0)
(10.0521 0.0280642 0)
(10.0577 0.0277499 0)
(10.0631 0.027208 0)
(10.0683 0.0264597 0)
(10.0733 0.0255193 0)
(10.0781 0.0243984 0)
(10.0826 0.0231102 0)
(10.0868 0.0216749 0)
(10.0909 0.0201433 0)
(10.0008 0.0054715 0)
(10.0035 0.0106185 0)
(10.0079 0.0146929 0)
(10.0132 0.0176891 0)
(10.0189 0.01983 0)
(10.0247 0.0213056 0)
(10.0305 0.0222479 0)
(10.0363 0.0227618 0)
(10.0419 0.0229312 0)
(10.0475 0.0228179 0)
(10.0528 0.0224656 0)
(10.058 0.0219056 0)
(10.063 0.0211612 0)
(10.0677 0.0202508 0)
(10.0722 0.0191911 0)
(10.0765 0.0180004 0)
(10.0805 0.0167011 0)
(10.0844 0.0153379 0)
(10.0006 0.00404753 0)
(10.003 0.00787637 0)
(10.0067 0.0109756 0)
(10.0114 0.0133025 0)
(10.0165 0.014972 0)
(10.0218 0.0161087 0)
(10.0272 0.0168093 0)
(10.0326 0.0171521 0)
(10.038 0.0172011 0)
(10.0432 0.017006 0)
(10.0483 0.0166042 0)
(10.0532 0.0160245 0)
(10.0579 0.0152896 0)
(10.0624 0.0144192 0)
(10.0667 0.0134317 0)
(10.0708 0.012346 0)
(10.0746 0.0111833 0)
(10.0783 0.00998101 0)
(10.0006 0.00264152 0)
(10.0025 0.00514553 0)
(10.0058 0.00718973 0)
(10.0099 0.0087289 0)
(10.0145 0.00981422 0)
(10.0194 0.0105165 0)
(10.0245 0.0108974 0)
(10.0295 0.0110085 0)
(10.0346 0.0108938 0)
(10.0395 0.0105889 0)
(10.0443 0.0101222 0)
(10.049 0.00951699 0)
(10.0535 0.00879282 0)
(10.0578 0.0079673 0)
(10.0618 0.00705711 0)
(10.0657 0.0060789 0)
(10.0693 0.00505046 0)
(10.0729 0.00400173 0)
(10.0005 0.00122113 0)
(10.0022 0.00236592 0)
(10.0052 0.00327443 0)
(10.0089 0.00391614 0)
(10.0131 0.00430806 0)
(10.0177 0.00448042 0)
(10.0224 0.00446217 0)
(10.0272 0.00427921 0)
(10.032 0.0039545 0)
(10.0366 0.0035078 0)
(10.0412 0.00295585 0)
(10.0457 0.00231336 0)
(10.0499 0.00159359 0)
(10.054 0.000809018 0)
(10.0579 -2.82407e-05 0)
(10.0616 -0.000906138 0)
(10.0651 -0.0018119 0)
(10.0685 -0.00272268 0)
(10.0005 -0.000177722 0)
(10.0021 -0.000383942 0)
(10.0049 -0.000632566 0)
(10.0084 -0.000931012 0)
(10.0125 -0.00128061 0)
(10.0168 -0.00168302 0)
(10.0214 -0.00213896 0)
(10.026 -0.00264722 0)
(10.0306 -0.00320533 0)
(10.0351 -0.00381012 0)
(10.0395 -0.00445774 0)
(10.0438 -0.00514387 0)
(10.0479 -0.00586357 0)
(10.0519 -0.00661132 0)
(10.0556 -0.00738109 0)
(10.0592 -0.00816641 0)
(10.0626 -0.00895983 0)
(10.0659 -0.00974531 0)
(10.0005 -0.00147087 0)
(10.0021 -0.00293484 0)
(10.0049 -0.00426805 0)
(10.0085 -0.00544644 0)
(10.0125 -0.00648621 0)
(10.0169 -0.00742109 0)
(10.0214 -0.00828062 0)
(10.026 -0.00908674 0)
(10.0305 -0.00985656 0)
(10.035 -0.0106033 0)
(10.0393 -0.0113363 0)
(10.0436 -0.0120617 0)
(10.0476 -0.0127831 0)
(10.0515 -0.0135019 0)
(10.0552 -0.0142183 0)
(10.0587 -0.014931 0)
(10.062 -0.0156373 0)
(10.0653 -0.0163269 0)
(10.0005 -0.00265852 0)
(10.0022 -0.00529191 0)
(10.0052 -0.00762381 0)
(10.009 -0.00958472 0)
(10.0132 -0.0112185 0)
(10.0177 -0.0126022 0)
(10.0223 -0.0137948 0)
(10.0269 -0.0148401 0)
(10.0315 -0.015774 0)
(10.036 -0.0166248 0)
(10.0404 -0.0174141 0)
(10.0446 -0.018157 0)
(10.0486 -0.0188647 0)
(10.0525 -0.0195449 0)
(10.0561 -0.0202031 0)
(10.0596 -0.0208424 0)
(10.0629 -0.0214639 0)
(10.0661 -0.0220615 0)
(10.0005 -0.0037846 0)
(10.0024 -0.00756927 0)
(10.0057 -0.0108569 0)
(10.0098 -0.0135111 0)
(10.0143 -0.0156452 0)
(10.019 -0.0173996 0)
(10.0238 -0.0188615 0)
(10.0286 -0.0200943 0)
(10.0333 -0.021153 0)
(10.0379 -0.022081 0)
(10.0423 -0.02291 0)
(10.0465 -0.0236631 0)
(10.0506 -0.0243572 0)
(10.0545 -0.0250055 0)
(10.0581 -0.0256177 0)
(10.0616 -0.0262013 0)
(10.0649 -0.0267617 0)
(10.0681 -0.0272977 0)
(10.0005 -0.00485182 0)
(10.0026 -0.00984325 0)
(10.0063 -0.0140696 0)
(10.0109 -0.0173085 0)
(10.0158 -0.019831 0)
(10.0208 -0.0218632 0)
(10.0259 -0.0235123 0)
(10.0308 -0.0248602 0)
(10.0356 -0.0259814 0)
(10.0403 -0.0269324 0)
(10.0448 -0.0277534 0)
(10.0491 -0.028474 0)
(10.0532 -0.0291167 0)
(10.0571 -0.0296991 0)
(10.0607 -0.030235 0)
(10.0642 -0.0307355 0)
(10.0675 -0.0312088 0)
(10.0707 -0.0316561 0)
(10.0005 -0.00582698 0)
(10.0027 -0.0121907 0)
(10.0071 -0.0173617 0)
(10.0124 -0.021087 0)
(10.0177 -0.0239315 0)
(10.023 -0.0261965 0)
(10.0283 -0.0279966 0)
(10.0334 -0.0294409 0)
(10.0384 -0.030626 0)
(10.0431 -0.0316168 0)
(10.0477 -0.0324564 0)
(10.052 -0.0331763 0)
(10.0561 -0.0338009 0)
(10.06 -0.0343498 0)
(10.0637 -0.0348394 0)
(10.0671 -0.0352847 0)
(10.0704 -0.0357006 0)
(10.0735 -0.0361002 0)
(10.0002 -0.0066349 0)
(10.0027 -0.0146602 0)
(10.0079 -0.0205703 0)
(10.0139 -0.0245058 0)
(10.0196 -0.0275255 0)
(10.0252 -0.0298913 0)
(10.0307 -0.0316842 0)
(10.0359 -0.0330585 0)
(10.0409 -0.0341475 0)
(10.0457 -0.0350322 0)
(10.0503 -0.0357633 0)
(10.0546 -0.0363768 0)
(10.0587 -0.0368989 0)
(10.0626 -0.0373493 0)
(10.0662 -0.0377436 0)
(10.0696 -0.0380964 0)
(10.0727 -0.0384222 0)
(10.0757 -0.0387323 0)
(9.99982 -0.00722921 0)
(10.0024 -0.0181419 0)
(10.0087 -0.0246994 0)
(10.0154 -0.0286245 0)
(10.0214 -0.0319025 0)
(10.0271 -0.0346106 0)
(10.0328 -0.0367032 0)
(10.0381 -0.038321 0)
(10.0431 -0.0395894 0)
(10.0479 -0.0405839 0)
(10.0523 -0.0413594 0)
(10.0566 -0.0419608 0)
(10.0605 -0.0424237 0)
(10.0643 -0.0427754 0)
(10.0678 -0.0430385 0)
(10.071 -0.0432347 0)
(10.0741 -0.0433927 0)
(10.077 -0.0435568 0)
(9.99841 -0.00502015 0)
(10.0007 -0.0202907 0)
(10.0088 -0.0271073 0)
(10.016 -0.0298146 0)
(10.0219 -0.0317608 0)
(10.0276 -0.0332628 0)
(10.0332 -0.0344598 0)
(10.0385 -0.0355335 0)
(10.0435 -0.0365442 0)
(10.0481 -0.0374877 0)
(10.0524 -0.0383542 0)
(10.0565 -0.0391391 0)
(10.0603 -0.0398399 0)
(10.0638 -0.0404546 0)
(10.0671 -0.0409825 0)
(10.0701 -0.0414254 0)
(10.0728 -0.0417944 0)
(10.0752 -0.0421158 0)
(9.99479 -0.00318764 0)
(9.99583 -0.0256805 0)
(10.0072 -0.0394679 0)
(10.0157 -0.0487341 0)
(10.0217 -0.0546419 0)
(10.0272 -0.0576182 0)
(10.0322 -0.0587651 0)
(10.0368 -0.0589345 0)
(10.0408 -0.0585717 0)
(10.0446 -0.0579152 0)
(10.048 -0.0571105 0)
(10.0512 -0.0562468 0)
(10.054 -0.0553741 0)
(10.0566 -0.0545161 0)
(10.059 -0.0536778 0)
(10.0611 -0.0528507 0)
(10.0629 -0.052029 0)
(10.0644 -0.0512214 0)
(9.98519 0.00576652 0)
(9.98187 0.024866 0)
(9.99411 0.0365096 0)
(10.0037 0.032137 0)
(10.0109 0.0223034 0)
(10.0167 0.012282 0)
(10.0211 0.00312386 0)
(10.024 -0.00497613 0)
(10.0259 -0.0119487 0)
(10.0269 -0.0178355 0)
(10.0271 -0.0227496 0)
(10.0268 -0.0268226 0)
(10.026 -0.0301781 0)
(10.0248 -0.032922 0)
(10.0232 -0.0351368 0)
(10.0213 -0.0368727 0)
(10.019 -0.0381456 0)
(10.016 -0.0388503 0)
(10.0137 -0.317342 0)
(10.0102 -0.326326 0)
(9.99895 -0.271524 0)
(9.98283 -0.224892 0)
(9.96834 -0.188169 0)
(9.95437 -0.158844 0)
(9.93926 -0.135774 0)
(9.92273 -0.117764 0)
(9.90499 -0.103643 0)
(9.88626 -0.0924794 0)
(9.86673 -0.0835779 0)
(9.8466 -0.0764176 0)
(9.82606 -0.0706039 0)
(9.80528 -0.0658338 0)
(9.78443 -0.0618669 0)
(9.76367 -0.0584914 0)
(9.74319 -0.0554786 0)
(9.72232 -0.0522126 0)
(9.95412 0.913092 0)
(9.95406 0.561002 0)
(9.86626 0.375415 0)
(9.7529 0.258525 0)
(9.63883 0.180489 0)
(9.52773 0.126933 0)
(9.41986 0.0891668 0)
(9.316 0.0619597 0)
(9.21681 0.0420717 0)
(9.12252 0.0273821 0)
(9.03314 0.0164469 0)
(8.94859 0.0082599 0)
(8.86872 0.00210771 0)
(8.79335 -0.00252217 0)
(8.72231 -0.00599971 0)
(8.65539 -0.00858526 0)
(8.59267 -0.0104238 0)
(8.53222 -0.0113598 0)
(0.00674029 -0.0167577 0)
(0.0178458 -0.0185809 0)
(0.0259806 -0.0131552 0)
(0.0291291 -0.00538414 0)
(0.0256918 0.00298503 0)
(0.0171657 0.0106078 0)
(0.00435955 0.0168316 -4.67549e-19)
(-0.0123976 0.0211494 4.3275e-19)
(-0.0309108 0.0235675 0)
(-0.0512853 0.0251408 3.24116e-19)
(-0.0730976 0.0263648 0)
(-0.0961379 0.0274048 0)
(-0.120262 0.0283018 0)
(-0.145347 0.0290614 -2.05342e-19)
(-0.171275 0.0296845 0)
(-0.197938 0.0301763 0)
(-0.225231 0.0305467 1.58132e-19)
(-0.253061 0.0308081 0)
(-0.281343 0.0309743 0)
(-0.310002 0.0310592 0)
(-0.338974 0.0310759 -1.20086e-19)
(-0.368205 0.0310365 0)
(-0.397647 0.0309519 -1.07105e-19)
(-0.427264 0.0308315 0)
(-0.457024 0.0306834 0)
(-0.486904 0.0305145 -9.22111e-20)
(-0.516886 0.0303303 0)
(-0.546956 0.0301355 8.44457e-20)
(-0.577104 0.0299335 0)
(-0.607325 0.029727 -7.79367e-20)
(-0.637614 0.0295179 0)
(-0.667971 0.0293073 0)
(-0.698396 0.0290957 0)
(-0.72889 0.0288834 0)
(-0.759455 0.0286702 0)
(-0.790093 0.0284559 6.35135e-20)
(-0.820807 0.0282408 0)
(-0.851598 0.0280254 -1.19771e-19)
(-0.882468 0.0278111 0)
(-0.913429 0.0276025 1.13349e-19)
(-0.944492 0.0274105 0)
(-0.975631 0.0272512 0)
(-1.00691 0.0271317 -1.04944e-19)
(-1.03834 0.0270382 0)
(-1.06995 0.0269584 -1.0001e-19)
(-1.10174 0.026886 9.77181e-20)
(-1.13371 0.0268171 0)
(-1.16587 0.0267485 9.3442e-20)
(-1.19822 0.0266781 9.14446e-20)
(-1.23074 0.0266041 0)
(-1.26345 0.0265248 0)
(-1.29632 0.026439 0)
(-1.32935 0.0263454 0)
(-1.36253 0.026243 0)
(-1.39584 0.0261306 -8.10894e-20)
(-1.42927 0.0260074 0)
(-1.46282 0.0258724 7.81561e-20)
(-1.49645 0.0257248 0)
(-1.53015 0.0255639 0)
(-1.5639 0.0253889 -7.41485e-20)
(-1.59769 0.0251991 0)
(-1.63148 0.0249939 7.17061e-20)
(-1.66526 0.0247727 0)
(-1.69899 0.0245349 0)
(-1.73266 0.0242801 0)
(-1.76624 0.0240075 -6.72857e-20)
(-1.79969 0.0237167 0)
(-1.83299 0.023407 0)
(-1.8661 0.023078 -6.43116e-20)
(-1.899 0.022729 0)
(-1.93164 0.0223596 -6.24635e-20)
(-1.96399 0.021969 0)
(-1.99601 0.0215568 0)
(-2.02767 0.0211222 0)
(-2.05891 0.0206646 5.90306e-20)
(-2.08971 0.0201833 0)
(-2.12001 0.0196776 0)
(-2.14976 0.0191467 5.66382e-20)
(-2.17892 0.0185901 5.58677e-20)
(-2.20743 0.0180071 0)
(-2.23525 0.0173969 5.4359e-20)
(-2.26232 0.0167591 0)
(-2.28857 0.0160932 1.05769e-19)
(-2.31395 0.0153987 0)
(-2.33841 0.0146753 1.02866e-19)
(-2.36187 0.013923 0)
(-2.38428 0.0131419 -9.99896e-20)
(-2.40557 0.0123324 0)
(-2.42567 0.011495 0)
(-2.44453 0.0106306 0)
(-2.46208 0.00974036 9.4233e-20)
(-2.47825 0.00882561 0)
(-2.49298 0.00788801 -9.13119e-20)
(-2.50622 0.00692943 0)
(-2.51791 0.00595197 8.83356e-20)
(-2.52799 0.00495784 8.68207e-20)
(-2.53643 0.00394926 8.52847e-20)
(-2.54317 0.00292784 0)
(-2.54817 0.00189385 0)
(-2.55139 0.000850351 0)
(-2.55279 -0.000186892 0)
(-2.55237 -0.00121036 0)
(-2.55012 -0.00222465 0)
(-2.54605 -0.00322922 0)
(-2.54015 -0.00422307 0)
(-2.53242 -0.00520509 -6.98596e-20)
(-2.52286 -0.00617404 -6.79402e-20)
(-2.51148 -0.0071286 0)
(-2.49829 -0.00806739 0)
(-2.4833 -0.00898904 0)
(-2.46653 -0.00989217 -5.97806e-20)
(-2.44799 -0.0107754 0)
(-2.42771 -0.0116373 0)
(-2.40572 -0.0124765 0)
(-2.38204 -0.0132913 0)
(-2.3567 -0.0140803 4.83582e-20)
(-2.32975 -0.014842 0)
(-2.30122 -0.0155749 0)
(-2.27117 -0.0162778 -4.07665e-20)
(-2.23963 -0.0169497 3.81022e-20)
(-2.20667 -0.0175896 0)
(-2.17232 -0.0181965 3.25617e-20)
(-2.13666 -0.0187698 0)
(-2.09974 -0.0193087 -2.67259e-20)
(-2.06162 -0.0198129 0)
(-2.02237 -0.0202819 0)
(-1.98204 -0.0207152 0)
(-1.94072 -0.0211127 0)
(-1.89846 -0.0214744 0)
(-1.85534 -0.0218005 1.45398e-20)
(-1.81143 -0.0220918 7.43352e-21)
(-1.76679 -0.0223491 0)
(-1.72149 -0.0225734 0)
(-1.6756 -0.0227655 0)
(-1.62918 -0.0229261 2.29919e-20)
(-1.58231 -0.0230563 0)
(-1.53504 -0.0231575 0)
(-1.48743 -0.0232318 0)
(-1.43954 -0.0232814 5.70006e-20)
(-1.39142 -0.0233084 -6.61352e-20)
(-1.34313 -0.0233137 0)
(-1.2947 -0.023299 0)
(-1.24619 -0.0232669 -9.5254e-20)
(-1.19762 -0.0232211 -1.05581e-19)
(-1.14904 -0.0231652 0)
(-1.10047 -0.0230999 0)
(-1.05192 -0.0230256 1.38675e-19)
(-1.00344 -0.0229467 -1.50482e-19)
(-0.955012 -0.022869 0)
(-0.906653 -0.0227953 0)
(-0.858357 -0.0227237 -1.88593e-19)
(-0.810132 -0.0226567 0)
(-0.761965 -0.0226048 0)
(-0.713825 -0.0225711 -2.31457e-19)
(-0.665687 -0.0225487 0)
(-0.617548 -0.0225417 -2.63261e-19)
(-0.569357 -0.0225726 0)
(-0.521043 -0.0226304 0)
(-0.472605 -0.0226974 0)
(-0.423976 -0.0228261 3.36894e-19)
(-0.375062 -0.0229939 0)
(-0.325829 -0.0231727 0)
(-0.276203 -0.0234401 0)
(-0.226143 -0.0237418 0)
(-0.175432 -0.0240648 0)
(-0.124244 -0.0244871 0)
(-0.0723376 -0.0249927 5.17025e-19)
(-0.0198536 -0.0255548 5.48145e-19)
(0.0347214 -0.0255382 0)
(0.0882049 -0.0250083 0)
(0.142807 -0.0246257 0)
(0.198005 -0.0243465 -5.20739e-19)
(0.253953 -0.0241042 0)
(0.310638 -0.0238388 1.00012e-18)
(0.36795 -0.0234826 -9.81059e-19)
(0.425276 -0.0228592 -9.63448e-19)
(0.482284 -0.0218058 9.47947e-19)
(0.534634 -0.0192721 -9.36469e-19)
(0.586683 -0.0151594 9.32515e-19)
(0.587317 0.000582767 0)
(0.00263227 -0.0344452 0)
(0.00403129 -0.0265104 0)
(-0.000992322 -0.00879772 4.66514e-19)
(-0.0101859 0.00914208 0)
(-0.0220104 0.0246942 -3.06165e-19)
(-0.036228 0.0373796 -2.77988e-19)
(-0.0524377 0.0472605 -1.29325e-19)
(-0.0704597 0.0546098 -1.2162e-19)
(-0.0900951 0.0599987 0)
(-0.111201 0.0641079 -1.07963e-19)
(-0.133547 0.0673716 0)
(-0.15692 0.0700432 0)
(-0.181147 0.0722545 1.80818e-19)
(-0.206087 0.0740748 8.54683e-20)
(-0.231628 0.0755471 -1.61629e-19)
(-0.257676 0.0767056 -1.53201e-19)
(-0.284149 0.0775823 -7.27965e-20)
(-0.310977 0.0782095 0)
(-0.338101 0.0786189 0)
(-0.365469 0.0788413 0)
(-0.393037 0.078906 -6.01999e-20)
(-0.420768 0.07884 0)
(-0.448632 0.0786677 1.66323e-19)
(-0.476607 0.0784112 0)
(-0.504673 0.0780896 0)
(-0.532818 0.0777194 4.95174e-20)
(-0.561034 0.0773148 0)
(-0.589314 0.0768877 -4.62194e-20)
(-0.617657 0.0764475 -8.93582e-20)
(-0.646065 0.0760022 4.33482e-20)
(-0.67454 0.0755578 0)
(-0.703088 0.0751189 0)
(-0.731715 0.0746888 0)
(-0.760429 0.0742698 -7.70897e-20)
(-0.78924 0.0738633 -7.50526e-20)
(-0.818157 0.0734701 -3.66229e-20)
(-0.84719 0.0730907 0)
(-0.876349 0.0727254 6.97029e-20)
(-0.905646 0.0723746 0)
(-0.935092 0.0720398 -6.65151e-20)
(-0.964701 0.0717273 0)
(-0.994475 0.0714503 0)
(-1.02441 0.0712132 6.22792e-20)
(-1.05451 0.0710055 0)
(-1.08477 0.0708157 1.78995e-19)
(-1.11518 0.0706348 -5.85573e-20)
(-1.14575 0.0704557 0)
(-1.17648 0.0702728 -5.63106e-20)
(-1.20736 0.0700812 -5.5249e-20)
(-1.23838 0.0698769 0)
(-1.26955 0.0696563 0)
(-1.30085 0.0694162 0)
(-1.33227 0.0691537 0)
(-1.3638 0.0688661 0)
(-1.39543 0.0685509 4.96077e-20)
(-1.42714 0.0682058 9.72955e-20)
(-1.45893 0.0678286 -4.79626e-20)
(-1.49076 0.0674175 0)
(-1.52264 0.0669703 9.25849e-20)
(-1.55452 0.0664855 -4.54307e-20)
(-1.58641 0.0659614 0)
(-1.61827 0.0653965 -4.42571e-20)
(-1.65007 0.0647893 0)
(-1.68181 0.0641384 0)
(-1.71345 0.0634426 -8.42987e-20)
(-1.74496 0.0627006 4.16364e-20)
(-1.77632 0.0619109 -8.18105e-20)
(-1.8075 0.0610724 8.06091e-20)
(-1.83847 0.0601837 3.9829e-20)
(-1.8692 0.0592437 0)
(-1.89965 0.058251 3.86858e-20)
(-1.92979 0.0572042 0)
(-1.95958 0.0561019 0)
(-1.98899 0.0549428 0)
(-2.01797 0.0537251 3.6317e-20)
(-2.04648 0.0524473 0)
(-2.07449 0.0511079 7.07662e-20)
(-2.10194 0.0497052 -1.04717e-19)
(-2.12879 0.0482377 -3.44606e-20)
(-2.15499 0.0467038 0)
(-2.18049 0.0451021 -3.34592e-20)
(-2.20523 0.0434313 0)
(-2.22915 0.0416902 -6.49353e-20)
(-2.25221 0.0398782 0)
(-2.27435 0.0379947 -6.29598e-20)
(-2.29549 0.0360398 1.23698e-19)
(-2.31558 0.0340141 6.09808e-20)
(-2.33457 0.0319188 0)
(-2.35237 0.0297558 0)
(-2.36894 0.0275278 0)
(-2.3842 0.025238 -5.69707e-20)
(-2.3981 0.0228907 0)
(-2.41058 0.0204909 5.49208e-20)
(-2.42157 0.0180442 0)
(-2.43103 0.0155569 -1.58443e-19)
(-2.4389 0.0130358 -5.17677e-20)
(-2.44514 0.0104874 -5.06929e-20)
(-2.4497 0.00791645 0)
(-2.45254 0.00532449 0)
(-2.45359 0.00272287 0)
(-2.45289 0.000141783 0)
(-2.45041 -0.00240124 0)
(-2.44615 -0.00490774 -8.77821e-20)
(-2.44011 -0.00737619 -8.53627e-20)
(-2.43227 -0.00980408 0)
(-2.42266 -0.0121885 4.00825e-20)
(-2.41126 -0.0145262 3.87978e-20)
(-2.39808 -0.0168141 0)
(-2.38314 -0.0190488 7.26381e-20)
(-2.36645 -0.021227 0)
(-2.34802 -0.0233454 -3.38021e-20)
(-2.32787 -0.0254007 0)
(-2.30603 -0.0273897 0)
(-2.28253 -0.0293092 5.88264e-20)
(-2.25738 -0.0311557 0)
(-2.23063 -0.0329261 -2.62621e-20)
(-2.20231 -0.034617 0)
(-2.17246 -0.0362256 0)
(-2.14113 -0.0377494 -2.22343e-20)
(-2.10836 -0.0391862 -2.01405e-20)
(-2.07421 -0.0405342 0)
(-2.03872 -0.0417922 1.7549e-20)
(-2.00196 -0.042959 0)
(-1.96398 -0.0440343 -1.43279e-20)
(-1.92483 -0.0450177 -2.47456e-20)
(-1.88459 -0.0459092 0)
(-1.84332 -0.0467087 0)
(-1.80107 -0.0474163 0)
(-1.75791 -0.048033 0)
(-1.71392 -0.0485604 -7.08857e-21)
(-1.66916 -0.049001 -1.2172e-20)
(-1.62369 -0.0493578 0)
(-1.57758 -0.0496342 0)
(-1.53088 -0.049833 0)
(-1.48367 -0.0499566 -1.06858e-20)
(-1.436 -0.0500081 0)
(-1.38794 -0.0499916 0)
(-1.33953 -0.0499122 4.18944e-20)
(-1.29083 -0.0497761 2.39279e-20)
(-1.2419 -0.0495888 2.91487e-20)
(-1.19276 -0.049353 0)
(-1.14347 -0.0490721 0)
(-1.09407 -0.048752 4.05566e-20)
(-1.04459 -0.0484004 -4.29411e-20)
(-0.995049 -0.0480263 0)
(-0.945478 -0.0476324 0)
(-0.895893 -0.0472187 -5.61834e-20)
(-0.846313 -0.0467923 1.79049e-19)
(-0.796745 -0.0463654 0)
(-0.747188 -0.0459456 0)
(-0.697632 -0.045529 7.23526e-20)
(-0.648079 -0.0451168 0)
(-0.598517 -0.0447285 1.59894e-19)
(-0.548914 -0.0443727 -8.34485e-20)
(-0.499239 -0.0440359 0)
(-0.449478 -0.0437205 9.34929e-20)
(-0.399587 -0.0434654 1.94281e-19)
(-0.349502 -0.0432563 0)
(-0.299192 -0.0430601 0)
(-0.248597 -0.0429505 -1.11323e-19)
(-0.197662 -0.0429049 0)
(-0.146276 -0.0428766 2.3972e-19)
(-0.0944147 -0.0429504 0)
(-0.042099 -0.0430972 0)
(0.0111677 -0.043248 0)
(0.0648661 -0.0434269 0)
(0.119132 -0.0436816 -1.37757e-19)
(0.174064 -0.0440841 -1.39258e-19)
(0.229995 -0.044179 0)
(0.286543 -0.0439868 0)
(0.344126 -0.0439566 0)
(0.402541 -0.0440065 1.45438e-19)
(0.461824 -0.0440758 0)
(0.521908 -0.0440705 -2.96181e-19)
(0.582648 -0.0438546 2.98607e-19)
(0.643528 -0.0431508 3.0096e-19)
(0.704213 -0.0415325 3.00812e-19)
(0.761732 -0.037716 3.06169e-19)
(0.819698 -0.0300487 3.07974e-19)
(0.852633 -0.0115972 0)
(-0.00362386 -0.0304301 0)
(-0.0121457 -0.00802887 0)
(-0.0247239 0.0165689 -2.87525e-19)
(-0.038845 0.0374709 -2.14752e-19)
(-0.0541732 0.0552727 1.82589e-19)
(-0.0704272 0.0702476 1.6486e-19)
(-0.0876553 0.0825609 4.7249e-23)
(-0.105949 0.0924576 0)
(-0.125341 0.100308 0)
(-0.145777 0.106545 0)
(-0.167131 0.111537 0)
(-0.189262 0.115558 0)
(-0.212036 0.118796 -3.36482e-19)
(-0.235342 0.121382 0)
(-0.259087 0.123408 1.0202e-19)
(-0.283199 0.124947 9.74586e-20)
(-0.307615 0.126063 0)
(-0.332288 0.126811 0)
(-0.357177 0.127244 0)
(-0.382248 0.12741 0)
(-0.407474 0.127352 7.91141e-20)
(-0.432834 0.127113 0)
(-0.45831 0.126726 -7.34742e-20)
(-0.48389 0.126226 0)
(-0.509564 0.125639 0)
(-0.535327 0.12499 0)
(-0.561175 0.1243 -1.28517e-19)
(-0.587107 0.123585 0)
(-0.613126 0.122861 6.05417e-20)
(-0.639234 0.122137 -1.17561e-19)
(-0.665436 0.121424 0)
(-0.691739 0.120727 0)
(-0.718148 0.120053 0)
(-0.744673 0.119404 5.28871e-20)
(-0.771321 0.118783 5.1594e-20)
(-0.7981 0.11819 0)
(-0.825018 0.117628 0)
(-0.852085 0.117095 -9.60492e-20)
(-0.879307 0.116593 -9.39232e-20)
(-0.906692 0.11612 9.18916e-20)
(-0.934244 0.115678 0)
(-0.961964 0.115268 0)
(-0.989848 0.114886 0)
(-1.01789 0.114527 0)
(-1.04609 0.11418 -8.30471e-20)
(-1.07445 0.113838 -8.13121e-20)
(-1.10295 0.113493 7.97694e-20)
(-1.1316 0.113137 0)
(-1.1604 0.112765 0)
(-1.18932 0.112371 0)
(-1.21838 0.11195 0)
(-1.24756 0.111496 -7.27907e-20)
(-1.27684 0.111005 0)
(-1.30622 0.110473 0)
(-1.33569 0.109896 -6.91025e-20)
(-1.36524 0.109272 -6.80885e-20)
(-1.39484 0.108595 0)
(-1.42448 0.107864 1.31446e-19)
(-1.45415 0.107075 -6.48011e-20)
(-1.48382 0.106226 6.37628e-20)
(-1.51348 0.105313 0)
(-1.54311 0.104336 0)
(-1.57268 0.103291 0)
(-1.60217 0.102177 0)
(-1.63156 0.10099 5.89404e-20)
(-1.66082 0.0997305 1.15807e-19)
(-1.68994 0.098395 5.71601e-20)
(-1.71887 0.096982 -5.6297e-20)
(-1.74759 0.0954893 0)
(-1.77607 0.0939151 1.08978e-19)
(-1.80428 0.0922573 1.07349e-19)
(-1.8322 0.0905137 1.05747e-19)
(-1.85977 0.0886822 -1.0417e-19)
(-1.88697 0.0867603 0)
(-1.91377 0.0847457 -1.51739e-19)
(-1.94011 0.0826356 0)
(-1.96597 0.0804276 4.8924e-20)
(-1.99129 0.078119 4.83985e-20)
(-2.01604 0.0757073 0)
(-2.04016 0.0731898 0)
(-2.06361 0.0705642 9.22011e-20)
(-2.08634 0.0678284 0)
(-2.10829 0.0649805 8.93158e-20)
(-2.12941 0.0620191 0)
(-2.14964 0.0589434 -8.64425e-20)
(-2.16892 0.0557536 -1.70144e-19)
(-2.1872 0.0524506 0)
(-2.2044 0.0490361 0)
(-2.22048 0.0455134 0)
(-2.23536 0.0418867 -7.92189e-20)
(-2.24899 0.0381614 0)
(-2.26129 0.0343444 -7.62799e-20)
(-2.27223 0.0304439 0)
(-2.28173 0.0264691 0)
(-2.28974 0.0224304 1.43575e-19)
(-2.29621 0.0183388 0)
(-2.30109 0.0142053 6.87207e-20)
(-2.30435 0.0100389 0)
(-2.30593 0.00584654 6.55898e-20)
(-2.3058 0.00166142 0)
(-2.30399 -0.00247626 0)
(-2.30045 -0.00655551 0)
(-2.2952 -0.0105733 1.76499e-19)
(-2.28822 -0.0145261 5.70036e-20)
(-2.27952 -0.0184094 0)
(-2.2691 -0.0222184 0)
(-2.25696 -0.0259479 0)
(-2.2431 -0.0295927 0)
(-2.22755 -0.0331474 -4.79262e-20)
(-2.2103 -0.0366068 9.2543e-20)
(-2.19138 -0.0399656 4.41378e-20)
(-2.1708 -0.0432184 -8.49354e-20)
(-2.14859 -0.0463602 -8.10676e-20)
(-2.12477 -0.0493857 -3.82963e-20)
(-2.09938 -0.0522899 0)
(-2.07243 -0.0550676 -6.92237e-20)
(-2.04398 -0.0577139 0)
(-2.01405 -0.0602242 6.11431e-20)
(-1.98269 -0.0625947 2.81841e-20)
(-1.94995 -0.0648221 0)
(-1.91588 -0.0669037 -4.87821e-20)
(-1.88052 -0.0688376 -2.19308e-20)
(-1.84393 -0.0706227 0)
(-1.80617 -0.0722586 -1.848e-20)
(-1.76729 -0.0737452 4.75092e-20)
(-1.72736 -0.075083 0)
(-1.68642 -0.0762722 0)
(-1.64455 -0.0773132 0)
(-1.60181 -0.0782079 0)
(-1.55826 -0.0789593 1.0479e-20)
(-1.51396 -0.0795718 5.28957e-21)
(-1.46897 -0.0800506 0)
(-1.42337 -0.0804016 0)
(-1.3772 -0.0806301 0)
(-1.33052 -0.08074 0)
(-1.2834 -0.0807364 0)
(-1.23588 -0.0806258 0)
(-1.18802 -0.0804171 -2.5178e-20)
(-1.13987 -0.0801204 -8.97465e-22)
(-1.09148 -0.0797448 0)
(-1.04287 -0.0792954 0)
(-0.994099 -0.0787772 -4.17155e-20)
(-0.945195 -0.0781992 0)
(-0.89619 -0.0775733 5.13317e-20)
(-0.847108 -0.0769146 5.47985e-20)
(-0.797964 -0.0762284 0)
(-0.748773 -0.075514 0)
(-0.699553 -0.0747815 -6.87878e-20)
(-0.650309 -0.0740494 -1.44549e-19)
(-0.601035 -0.0733312 0)
(-0.55172 -0.0726214 0)
(-0.502361 -0.0719202 0)
(-0.452944 -0.0712554 -9.07164e-20)
(-0.403441 -0.0706424 9.51276e-20)
(-0.353813 -0.0700625 0)
(-0.304042 -0.069517 2.0621e-19)
(-0.254082 -0.0690575 1.06672e-19)
(-0.203889 -0.068671 -2.24027e-19)
(-0.153401 -0.0683163 0)
(-0.102549 -0.0680703 0)
(-0.051358 -0.0679259 -2.50972e-19)
(0.000408316 -0.0678304 -1.30538e-19)
(0.0526996 -0.0678191 0)
(0.105359 -0.0679082 0)
(0.158708 -0.0680364 0)
(0.212676 -0.0681707 0)
(0.267382 -0.0683926 -2.87307e-19)
(0.322814 -0.068761 0)
(0.379112 -0.0690186 0)
(0.436365 -0.0691589 0)
(0.494692 -0.0694145 0)
(0.55396 -0.0697312 0)
(0.614154 -0.0700332 0)
(0.675182 -0.0701956 -3.20705e-19)
(0.736902 -0.0700244 0)
(0.798878 -0.0691523 0)
(0.860918 -0.0670105 -6.68338e-19)
(0.920852 -0.0621983 3.37807e-19)
(0.982695 -0.0531702 -3.44987e-19)
(1.03041 -0.0343964 3.49484e-19)
(-0.00915506 -0.00806473 0)
(-0.0229493 0.023819 7.52509e-19)
(-0.0385469 0.0497338 0)
(-0.0553955 0.0714053 1.61696e-19)
(-0.0727205 0.0900394 0)
(-0.0902722 0.106021 0)
(-0.108178 0.119527 -1.13019e-19)
(-0.126582 0.130739 0)
(-0.14557 0.139912 0)
(-0.16516 0.147346 0)
(-0.185319 0.153337 0)
(-0.205985 0.15814 0)
(-0.227086 0.161958 3.33856e-19)
(-0.248556 0.164952 1.59722e-19)
(-0.270336 0.167246 -1.5298e-19)
(-0.292378 0.168943 0)
(-0.314644 0.170128 0)
(-0.337102 0.170876 0)
(-0.359728 0.171255 0)
(-0.382503 0.171323 0)
(-0.405411 0.171135 1.21019e-19)
(-0.428441 0.170739 1.16869e-19)
(-0.451585 0.170179 -1.1299e-19)
(-0.474836 0.169492 1.0936e-19)
(-0.498191 0.168712 0)
(-0.52165 0.167867 0)
(-0.545211 0.16698 9.97771e-20)
(-0.568876 0.166073 0)
(-0.592649 0.165162 0)
(-0.616534 0.164259 9.17755e-20)
(-0.640535 0.163377 8.9365e-20)
(-0.664659 0.162521 8.71072e-20)
(-0.688911 0.161698 0)
(-0.713297 0.160912 0)
(-0.737823 0.160164 -8.09878e-20)
(-0.762497 0.159455 0)
(-0.787324 0.158785 0)
(-0.812309 0.158153 7.5735e-20)
(-0.837456 0.157557 -7.4013e-20)
(-0.862769 0.156995 7.24594e-20)
(-0.888249 0.156463 0)
(-0.913895 0.15596 0)
(-0.939705 0.155478 1.36424e-19)
(-0.965675 0.155011 0)
(-0.991801 0.15455 1.31195e-19)
(-1.01808 0.154087 1.93137e-19)
(-1.04451 0.153614 -1.89541e-19)
(-1.07107 0.153122 1.23995e-19)
(-1.09778 0.152604 0)
(-1.12461 0.152053 0)
(-1.15157 0.151462 1.17458e-19)
(-1.17864 0.150825 5.77753e-20)
(-1.20581 0.150137 0)
(-1.23308 0.149392 0)
(-1.26042 0.148586 5.48749e-20)
(-1.28783 0.147712 1.07778e-19)
(-1.31529 0.146768 0)
(-1.34279 0.145748 -1.0441e-19)
(-1.3703 0.14465 1.02577e-19)
(-1.39782 0.143469 -1.00931e-19)
(-1.42532 0.142203 0)
(-1.45278 0.140848 0)
(-1.48018 0.139401 0)
(-1.50751 0.137859 0)