/*--------------------------------*- C++ -*----------------------------------*\
| =========                 |                                                 |
| \\      /  F ield         | OpenFOAM: The Open Source CFD Toolbox           |
|  \\    /   O peration     | Version:  2.2.x                                 |
|   \\  /    A nd           | Web:      www.OpenFOAM.org                      |
|    \\/     M anipulation  |                                                 |
\*---------------------------------------------------------------------------*/
FoamFile
{
    version     2.0;
    format      ascii;
    class       volScalarField;
    location    "760";
    object      epsilon;
}
// * * * * * * * * * * * * * * * * * * * * * * * * * * * * * * * * * * * * * //

dimensions      [0 2 -3 0 0 0 0];

internalField   nonuniform List<scalar> 
12225
(
1739.11
3020.51
4030.08
4714.52
5131.93
5357.71
5455.52
5472
5438.96
5377.2
5299.97
5215.57
5129.11
5043.65
4960.99
4882.02
4806.04
4739.56
187.432
345.311
471.696
572.302
644.889
692.993
722.813
740.095
749.26
753.446
754.772
754.619
753.862
753.045
752.542
752.888
756.344
763.795
41.8453
72.5092
98.5908
120.692
138.683
152.661
163.128
170.721
176.066
179.715
182.127
183.666
184.612
185.18
185.537
185.841
186.286
186.73
20.3598
27.9831
35.4716
42.3256
48.3647
53.5242
57.833
61.3684
64.2262
66.5055
68.3013
69.6997
70.7761
71.5953
72.2126
72.677
73.0259
73.242
16.0562
18.2138
20.6758
23.1517
25.4998
27.647
29.5647
31.2498
32.7124
33.9697
35.0418
35.9494
36.7131
37.3517
37.8827
38.3215
38.6795
38.9548
15.0131
15.5456
16.3131
17.1967
18.1162
19.0202
19.8784
20.6746
21.4016
22.0579
22.645
23.1664
23.6267
24.0311
24.3845
24.6917
24.9565
25.1778
14.7583
14.7814
14.9213
15.1496
15.4364
15.7557
16.0877
16.4187
16.7394
17.0439
17.3288
17.5926
17.8345
18.0548
18.2541
18.4333
18.5933
18.7324
14.7063
14.5999
14.5497
14.5524
14.5992
14.6794
14.7827
14.9004
15.0257
15.1534
15.2798
15.4022
15.5189
15.6288
15.731
15.8253
15.9114
15.9875
14.6923
14.5448
14.4247
14.3339
14.2712
14.2336
14.2169
14.2168
14.2293
14.2511
14.2791
14.3112
14.3454
14.3804
14.4151
14.4487
14.4805
14.5092
14.6883
14.5275
14.3816
14.2517
14.1383
14.041
13.9587
13.8899
13.8329
13.786
13.7477
13.7163
13.6906
13.6695
13.6521
13.6374
13.6249
13.6137
14.6872
14.5228
14.3691
14.2261
14.0938
13.9722
13.8608
13.7593
13.6669
13.583
13.5069
13.4378
13.3749
13.3176
13.2653
13.2173
13.1732
13.1327
14.6868
14.5216
14.3659
14.2194
14.0816
13.9521
13.8307
13.717
13.6105
13.5109
13.4178
13.3307
13.2494
13.1733
13.1021
13.0354
12.973
12.9149
14.6866
14.5211
14.365
14.2176
14.0785
13.9471
13.8229
13.7057
13.5949
13.4902
13.3913
13.2978
13.2094
13.1259
13.0469
12.9721
12.9014
12.8352
14.6865
14.5209
14.3646
14.217
14.0775
13.9456
13.8209
13.7028
13.5909
13.4849
13.3845
13.2892
13.1988
13.113
13.0316
12.9542
12.8808
12.8118
14.6864
14.5207
14.3643
14.2166
14.077
13.9449
13.82
13.7017
13.5895
13.4832
13.3824
13.2867
13.1958
13.1095
13.0274
12.9494
12.8752
12.8054
14.6863
14.5206
14.3641
14.2163
14.0766
13.9445
13.8194
13.701
13.5887
13.4823
13.3813
13.2855
13.1944
13.1079
13.0257
12.9475
12.8731
12.8031
14.6863
14.5205
14.364
14.2161
14.0764
13.9442
13.8191
13.7005
13.5882
13.4817
13.3806
13.2847
13.1936
13.1069
13.0246
12.9463
12.8718
12.8017
14.6863
14.5205
14.364
14.2161
14.0763
13.9441
13.8189
13.7003
13.588
13.4814
13.3803
13.2843
13.1931
13.1064
13.024
12.9457
12.8712
12.801
14.6863
14.5205
14.364
14.2161
14.0763
13.9441
13.8189
13.7003
13.588
13.4814
13.3803
13.2843
13.1931
13.1064
13.024
12.9456
12.8711
12.801
14.6863
14.5206
14.3641
14.2162
14.0765
13.9443
13.8191
13.7006
13.5883
13.4818
13.3808
13.2849
13.1938
13.1073
13.0251
12.9469
12.8726
12.8027
14.6864
14.5207
14.3642
14.2165
14.0769
13.9449
13.82
13.7019
13.5901
13.4842
13.3839
13.2889
13.1988
13.1134
13.0324
12.9556
12.8828
12.8144
14.6865
14.5209
14.3648
14.2177
14.0791
13.9486
13.8259
13.7104
13.6019
13.4999
13.4041
13.314
13.2295
13.15
13.0752
13.005
12.9389
12.8774
14.6868
14.5224
14.369
14.2265
14.095
13.9742
13.8637
13.7628
13.6711
13.5877
13.512
13.4432
13.3806
13.3236
13.2715
13.224
13.1805
13.1411
14.6896
14.5346
14.3997
14.286
14.1933
14.12
14.0639
14.0227
13.9939
13.9753
13.9649
13.9609
13.9619
13.9667
13.9742
13.9836
13.9944
14.0062
14.712
14.6198
14.5883
14.6113
14.6786
14.7791
14.9026
15.0408
15.1873
15.337
15.4862
15.6323
15.7736
15.9086
16.0367
16.1574
16.2705
16.3761
14.8713
15.1221
15.5436
16.0692
16.6493
17.249
17.8449
18.4228
18.9736
19.4926
19.977
20.4262
20.8403
21.2205
21.5681
21.885
22.173
22.4339
15.8759
17.706
19.7886
21.8987
23.9445
25.8788
27.679
29.3366
30.8502
32.2226
33.4596
34.5688
35.5587
36.4385
37.2176
37.9049
38.5086
39.0368
22.1652
31.1005
39.3161
46.8941
53.8923
60.2815
66.05
71.2042
75.7626
79.7547
83.2194
86.2019
88.7505
90.9134
92.7365
94.2608
95.5198
96.5328
68.0189
114.899
154.783
191.789
226.036
256.864
283.963
307.308
327.06
343.508
357.015
367.974
376.764
383.74
389.211
393.436
396.599
398.707
723.143
1065.45
1375.75
1655.21
1913.04
2142.31
2339.72
2504.91
2639.56
2746.51
2829.17
2891.01
2935.4
2965.37
2983.59
2992.36
2993.66
2988.96
0.287761
0.245332
0.343812
0.427838
0.514955
0.605441
0.709317
0.862039
1.07152
1.33393
1.64723
2.0093
2.41891
2.87537
3.3782
3.92702
4.52157
5.16169
5.84738
6.57877
7.3562
8.18016
9.05136
9.97065
10.9391
11.9579
13.0284
14.1524
15.3315
16.5678
17.8634
19.2209
20.643
22.1329
23.6942
25.3309
27.0481
28.8514
30.7481
32.747
34.8592
37.099
39.4849
42.0412
44.7258
47.5389
50.4852
53.5695
56.7965
60.1712
63.6981
67.3821
71.2277
75.2396
79.4221
83.7798
88.3168
93.0372
97.945
103.044
108.337
113.829
119.521
125.417
131.519
137.83
144.351
151.083
158.027
165.184
172.555
180.138
187.933
195.938
204.151
212.57
221.192
230.013
239.028
248.231
257.618
267.181
276.912
286.803
296.845
307.026
317.335
327.76
338.287
348.901
359.586
370.328
381.108
391.909
402.715
413.511
424.281
435.016
445.712
456.373
467.02
477.698
488.345
498.808
509.071
519.118
528.932
538.494
547.786
556.79
565.488
573.862
581.894
589.566
596.862
603.765
610.259
616.328
621.957
627.133
631.843
636.075
639.818
643.064
645.804
648.032
649.74
650.924
651.582
651.712
651.314
650.392
648.949
646.99
644.521
641.55
638.087
634.146
629.74
624.882
619.588
613.874
607.761
601.271
594.421
587.231
579.728
571.937
563.875
555.569
547.048
538.331
529.444
520.42
511.264
502.018
492.714
483.342
473.971
464.587
455.192
445.993
437.216
430.676
425.819
421.196
416.66
412.192
407.8
403.488
399.261
395.122
391.062
387.06
383.067
378.961
374.562
369.175
362.068
348.079
0.881411
0.457613
0.4192
0.469158
0.552305
0.659371
0.790627
0.949789
1.13839
1.35508
1.59787
1.86509
2.15558
2.4685
2.80326
3.15941
3.53667
3.93492
4.35424
4.79483
5.25708
5.74153
6.24882
6.77973
7.33515
7.91605
8.52351
9.15869
9.82285
10.5173
11.2436
12.0031
12.7976
13.6288
14.4987
15.4094
16.3631
17.3622
18.4093
19.5072
20.6585
21.866
23.1317
24.4565
25.8394
27.2813
28.7838
30.3485
31.977
33.6712
35.4325
37.2624
39.1626
41.1345
43.1795
45.2989
47.4939
49.7658
52.1155
54.5441
57.0524
59.6412
62.311
65.0624
67.8956
70.8109
73.8082
76.8873
80.0479
83.2895
86.6113
90.0124
93.4916
97.0475
100.679
104.383
108.159
112.003
115.914
119.888
123.923
128.015
132.161
136.356
140.597
144.879
149.198
153.549
157.926
162.326
166.742
171.17
175.604
180.04
184.473
188.9
193.316
197.722
202.117
206.504
210.889
215.28
219.679
224.016
228.278
232.458
236.548
240.542
244.433
248.214
251.878
255.418
258.827
262.098
265.224
268.2
271.018
273.673
276.159
278.47
280.6
282.545
284.301
285.863
287.227
288.391
289.351
290.105
290.65
290.987
291.114
291.031
290.739
290.238
289.532
288.621
287.509
286.199
284.697
283.006
281.132
279.081
276.859
274.473
271.932
269.241
266.41
263.448
260.362
257.163
253.859
250.46
246.975
243.415
239.786
236.099
232.367
228.589
224.787
220.958
217.086
213.303
209.656
206.441
203.626
200.927
198.287
195.696
193.151
190.656
188.212
185.821
183.486
181.204
178.972
176.777
174.601
172.399
170.174
169.13
1.52544
0.758145
0.676921
0.709149
0.7888
0.901553
1.0434
1.21275
1.40785
1.62634
1.86591
2.12476
2.4017
2.69601
3.00731
3.33544
3.68043
4.04247
4.42189
4.81916
5.23485
5.66964
6.12429
6.59967
7.09667
7.61627
8.15952
8.72748
9.3213
9.94217
10.5913
11.27
11.9796
12.7215
13.4971
14.3079
15.1555
16.0412
16.9668
17.9336
18.943
19.9963
21.0946
22.2388
23.4298
24.6687
25.9566
27.295
28.685
30.1278
31.6248
33.1769
34.7854
36.4514
38.1758
39.9596
41.8037
43.7091
45.6763
47.7063
49.7994
51.9564
54.1774
56.463
58.8131
61.2279
63.7074
66.2511
68.8589
71.5302
74.2642
77.0602
79.9172
82.8339
85.8091
88.8411
91.9284
95.0691
98.2611
101.502
104.79
108.123
111.496
114.909
118.358
121.839
125.35
128.888
132.448
136.028
139.624
143.233
146.85
150.473
154.098
157.723
161.345
164.96
168.569
172.169
175.76
179.343
182.893
186.393
189.832
193.206
196.507
199.732
202.873
205.925
208.883
211.74
214.493
217.134
219.66
222.063
224.34
226.486
228.495
230.364
232.088
233.663
235.085
236.351
237.459
238.405
239.187
239.804
240.253
240.534
240.647
240.59
240.366
239.974
239.416
238.694
237.81
236.767
235.568
234.218
232.721
231.081
229.303
227.393
225.357
223.201
220.931
218.555
216.08
213.511
210.857
208.126
205.323
202.458
199.537
196.562
193.552
190.494
187.418
184.338
181.246
178.197
175.226
172.425
169.8
167.262
164.781
162.349
159.964
157.627
155.34
153.107
150.931
148.814
146.761
144.78
142.885
141.113
139.574
139.025
2.14922
1.09462
0.94906
0.962681
1.03773
1.1516
1.29684
1.46972
1.66735
1.88703
2.12638
2.38362
2.65753
2.94743
3.25304
3.57434
3.91152
4.26495
4.63509
5.02255
5.42799
5.85218
6.29591
6.76007
7.24558
7.75339
8.28452
8.83999
9.42088
10.0283
10.6633
11.3272
12.021
12.7461
13.5036
14.2947
15.1208
15.983
16.8826
17.8207
18.7986
19.8174
20.878
21.9817
23.1294
24.3224
25.5618
26.8489
28.1849
29.571
31.0083
32.4981
34.0414
35.6393
37.2929
39.0033
40.7712
42.5978
44.4837
46.4298
48.4367
50.5051
52.6355
54.8283
57.0837
59.4021
61.7833
64.2274
66.7342
69.3032
71.934
74.6259
77.378
80.1893
83.0587
85.9849
88.9663
92.0014
95.0883
98.2251
101.41
104.64
107.913
111.228
114.58
117.968
121.389
124.84
128.318
131.819
135.342
138.881
142.435
146
149.571
153.147
156.722
160.294
163.859
167.413
170.955
174.471
177.946
181.368
184.732
188.029
191.256
194.405
197.471
200.448
203.331
206.115
208.793
211.361
213.814
216.145
218.351
220.425
222.365
224.165
225.821
227.33
228.687
229.891
230.937
231.824
232.55
233.113
233.512
233.746
233.814
233.717
233.455
233.03
232.443
231.696
230.792
229.733
228.523
227.167
225.669
224.032
222.263
220.367
218.351
216.219
213.978
211.635
209.198
206.672
204.065
201.386
198.637
195.829
192.972
190.052
187.114
184.147
181.165
178.181
175.196
172.239
169.335
166.524
163.816
161.178
158.595
156.062
153.58
151.148
148.771
146.451
144.194
142.004
139.891
137.87
135.965
134.233
132.777
132.024
3.09753
1.47119
1.22476
1.20825
1.27226
1.38181
1.5251
1.69657
1.8926
2.11033
2.34744
2.6022
2.87342
3.16043
3.46297
3.78106
4.11498
4.46514
4.83211
5.21652
5.61911
6.04066
6.48203
6.94408
7.42776
7.93401
8.46382
9.01821
9.59822
10.2049
10.8394
11.5027
12.196
12.9205
13.6772
14.4674
15.2923
16.153
17.0506
17.9864
18.9616
19.9773
21.0346
22.1348
23.2791
24.4688
25.7051
26.9895
28.3231
29.7073
31.1434
32.6327
34.1766
35.7762
37.4328
39.1476
40.9218
42.7564
44.6526
46.6113
48.6336
50.7201
52.8718
55.0892
57.373
59.7235
62.1411
64.626
67.1781
69.7973
72.4834
75.2359
78.0541
80.9372
83.8843
86.8941
89.9654
93.0965
96.286
99.5318
102.832
106.185
109.587
113.038
116.533
120.072
123.65
127.265
130.915
134.596
138.304
142.037
145.79
149.56
153.342
157.132
160.926
164.717
168.503
172.276
176.031
179.749
183.419
187.032
190.582
194.06
197.46
200.777
204.005
207.136
210.165
213.087
215.895
218.583
221.146
223.579
225.876
228.033
230.043
231.904
233.611
235.159
236.546
237.768
238.823
239.708
240.422
240.963
241.329
241.521
241.539
241.382
241.051
240.55
239.879
239.041
238.038
236.874
235.554
234.082
232.462
230.7
228.801
226.771
224.618
222.347
219.964
217.478
214.896
212.224
209.469
206.643
203.743
200.787
197.79
194.746
191.679
188.59
185.489
182.386
179.288
176.212
173.175
170.202
167.299
164.456
161.667
158.929
156.245
153.617
151.048
148.542
146.106
143.746
141.475
139.311
137.283
135.443
133.87
132.802
4.33314
1.88575
1.49558
1.43519
1.48138
1.58207
1.71974
1.88662
2.07825
2.29157
2.5243
2.77477
3.04186
3.32491
3.62366
3.93816
4.26868
4.61569
4.97976
5.36158
5.76189
6.18151
6.62131
7.08217
7.56505
8.0709
8.60071
9.15549
9.73629
10.3442
10.9802
11.6455
12.3412
13.0684
13.8283
14.6221
15.4509
16.3161
17.2187
18.1601
19.1416
20.1644
21.2298
22.3392
23.4941
24.6957
25.9457
27.2454
28.5964
30.0002
31.4584
32.9724
34.5439
36.1744
37.8654
39.6183
41.4347
43.316
45.2637
47.2789
49.3631
51.5175
53.7431
56.0409
58.412
60.857
63.3767
65.9714
68.6416
71.3875
74.2089
77.1058
80.0777
83.124
86.2439
89.4364
92.7002
96.034
99.4361
102.905
106.438
110.034
113.689
117.403
121.172
124.993
128.864
132.782
136.744
140.745
144.784
148.854
152.953
157.076
161.217
165.372
169.533
173.695
177.851
181.994
186.107
190.176
194.189
198.139
202.016
205.813
209.523
213.138
216.653
220.059
223.351
226.521
229.564
232.472
235.241
237.863
240.334
242.648
244.799
246.784
248.597
250.235
251.694
252.97
254.063
254.968
255.685
256.213
256.551
256.697
256.654
256.42
255.999
255.392
254.602
253.633
252.486
251.167
249.679
248.029
246.223
244.265
242.161
239.92
237.548
235.053
232.437
229.716
226.896
223.978
220.974
217.905
214.768
211.576
208.342
205.068
201.769
198.451
195.122
191.793
188.471
185.168
181.898
178.677
175.512
172.4
169.342
166.338
163.39
160.503
157.68
154.928
152.252
149.663
147.173
144.802
142.578
140.548
138.761
137.352
5.63278
2.29471
1.74607
1.63529
1.65955
1.74831
1.8779
2.03809
2.22346
2.43064
2.65733
2.9019
3.16327
3.44083
3.73433
4.04381
4.36956
4.71203
5.07183
5.44965
5.84626
6.26248
6.69921
7.15735
7.63787
8.14174
8.66997
9.2236
9.80368
10.4113
11.0476
11.7137
12.4107
13.1399
13.9024
14.6996
15.5326
16.4029
17.3117
18.2604
19.2505
20.2833
21.3605
22.4835
23.6541
24.8737
26.1441
27.4671
28.8444
30.2778
31.7692
33.3205
34.9335
36.6101
38.3522
40.1617
42.0404
43.9903
46.0131
48.1107
50.2846
52.5366
54.8683
57.2811
59.7763
62.3552
65.0188
67.7681
70.6037
73.5262
76.5359
79.633
82.8172
86.0883
89.4456
92.8882
96.4151
100.025
103.716
107.487
111.335
115.258
119.254
123.32
127.454
131.652
135.912
140.23
144.603
149.026
153.497
158.01
162.56
167.141
171.748
176.374
181.011
185.65
190.284
194.902
199.478
204
208.458
212.842
217.142
221.35
225.458
229.457
233.341
237.1
240.728
244.216
247.559
250.749
253.779
256.642
259.334
261.847
264.177
266.317
268.265
270.014
271.563
272.908
274.046
274.976
275.697
276.207
276.506
276.594
276.472
276.141
275.603
274.863
273.922
272.786
271.457
269.94
268.241
266.367
264.325
262.12
259.757
257.247
254.6
251.821
248.911
245.891
242.772
239.558
236.258
232.886
229.45
225.959
222.423
218.851
215.253
211.637
208.013
204.388
200.772
197.174
193.606
190.08
186.603
183.176
179.804
176.487
173.231
170.04
166.92
163.876
160.917
158.053
155.298
152.673
150.202
147.922
145.862
144.1
6.92077
2.68088
1.96977
1.80578
1.80566
1.88039
2.00012
2.15209
2.32985
2.5296
2.74894
2.98625
3.2405
3.51108
3.79777
4.10062
4.41992
4.75613
5.10983
5.48175
5.87266
6.2834
6.71489
7.16806
7.64389
8.14339
8.6676
9.2176
9.79448
10.3994
11.0335
11.698
12.394
13.123
13.8862
14.685
15.5207
16.3948
17.3088
18.2642
19.2628
20.306
21.3958
22.5338
23.7219
24.962
26.2563
27.6066
29.0151
30.4839
32.0154
33.6117
35.2752
37.0081
38.8128
40.6916
42.647
44.6813
46.7967
48.9956
51.2802
53.6528
56.1152
58.6697
61.3179
64.0617
66.9025
69.8419
72.8808
76.0204
79.2613
82.6039
86.0484
89.5948
93.2425
96.991
100.839
104.786
108.829
112.967
117.198
121.519
125.927
130.42
134.995
139.648
144.376
149.174
154.041
158.97
163.957
168.997
174.084
179.211
184.372
189.556
194.756
199.961
205.161
210.331
215.449
220.502
225.48
230.37
235.163
239.849
244.418
248.861
253.169
257.333
261.345
265.197
268.88
272.387
275.711
278.844
281.781
284.514
287.038
289.346
291.436
293.302
294.941
296.35
297.528
298.472
299.182
299.657
299.898
299.904
299.678
299.222
298.538
297.63
296.504
295.164
293.615
291.861
289.908
287.766
285.444
282.948
280.28
277.452
274.483
271.378
268.14
264.786
261.328
257.772
254.129
250.411
246.628
242.789
238.905
234.985
231.039
227.077
223.107
219.137
215.178
211.237
207.324
203.451
199.623
195.845
192.122
188.459
184.86
181.33
177.877
174.507
171.229
168.055
164.999
162.081
159.321
156.748
154.374
152.25
8.14942
3.03547
2.16463
1.94701
1.92124
1.9805
2.089
2.23155
2.40058
2.59185
2.80277
3.03169
3.27758
3.53987
3.81834
4.11305
4.42429
4.75251
5.09833
5.46244
5.84565
6.24882
6.67288
7.11879
7.58757
8.08026
8.59795
9.14177
9.71289
10.3125
10.9418
11.6022
12.2949
13.0213
13.783
14.5813
15.4178
16.2942
17.2121
18.1733
19.1797
20.2332
21.3357
22.4895
23.6965
24.9592
26.2799
27.6609
29.1048
30.6142
32.1918
33.8403
35.5624
37.361
39.2391
41.1994
43.2449
45.3785
47.6032
49.9218
52.3371
54.852
57.4691
60.1909
63.02
65.9586
69.0088
72.1725
75.4514
78.8469
82.3601
85.9918
89.7425
93.6125
97.6013
101.709
105.933
110.274
114.729
119.296
123.973
128.757
133.645
138.634
143.72
148.899
154.167
159.52
164.953
170.462
176.041
181.683
187.383
193.132
198.921
204.74
210.577
216.421
222.256
228.04
233.76
239.403
244.956
250.405
255.74
260.95
266.022
270.947
275.715
280.315
284.739
288.977
293.02
296.861
300.491
303.902
307.089
310.043
312.758
315.229
317.45
319.42
321.133
322.588
323.783
324.718
325.391
325.802
325.952
325.844
325.479
324.861
323.993
322.879
321.527
319.943
318.132
316.1
313.847
311.396
308.753
305.925
302.919
299.746
296.421
292.953
289.351
285.626
281.792
277.858
273.834
269.733
265.565
261.341
257.072
252.767
248.436
244.089
239.736
235.384
231.044
226.724
222.432
218.179
213.97
209.813
205.713
201.674
197.705
193.809
189.996
186.272
182.648
179.135
175.748
172.505
169.423
166.524
163.807
161.312
9.28488
3.35336
2.33062
2.06078
2.00905
2.05198
2.14825
2.28038
2.43976
2.62165
2.82324
3.04282
3.27934
3.53223
3.80128
4.08655
4.38834
4.70711
5.04347
5.39812
5.7719
6.16567
6.5804
7.01708
7.47677
7.96057
8.46962
9.00513
9.56832
10.1605
10.783
11.4372
12.1247
12.8468
13.6053
14.4017
15.2379
16.1157
17.0371
18.0039
19.0185
20.0829
21.1996
22.371
23.5996
24.8881
26.2392
27.656
29.1412
30.6982
32.3299
34.0397
35.8311
37.7073
39.6719
41.7285
43.8806
46.1318
48.4856
50.9457
53.5155
56.1985
58.9979
61.917
64.9589
68.1264
71.4224
74.8491
78.4088
82.1034
85.9344
89.903
94.0099
98.2555
102.64
107.162
111.822
116.617
121.546
126.606
131.795
137.108
142.544
148.096
153.762
159.536
165.415
171.391
177.462
183.62
189.859
196.173
202.553
208.99
215.473
221.991
228.529
235.074
241.584
248.029
254.394
260.665
266.828
272.87
278.775
284.533
290.129
295.553
300.793
305.839
310.68
315.306
319.708
323.876
327.803
331.48
334.901
338.057
340.941
343.549
345.875
347.917
349.671
351.137
352.312
353.198
353.794
354.098
354.116
353.848
353.3
352.474
351.376
350.008
348.385
346.511
344.394
342.041
339.459
336.663
333.663
330.468
327.088
323.534
319.82
315.956
311.955
307.827
303.584
299.24
294.804
290.29
285.707
281.068
276.384
271.664
266.919
262.16
257.395
252.635
247.887
243.16
238.464
233.806
229.195
224.637
220.138
215.704
211.343
207.062
202.868
198.769
194.777
190.904
187.162
183.569
180.139
176.889
173.807
170.934
10.3039
3.63174
2.46876
2.14959
2.07241
2.09867
2.18205
2.30302
2.452
2.62378
2.81532
3.0248
3.25115
3.49378
3.75249
4.02734
4.31863
4.62683
4.95254
5.2965
5.65955
6.04259
6.44661
6.87267
7.32185
7.79535
8.29437
8.82021
9.3742
9.95776
10.5724
11.2195
11.901
12.6183
13.3734
14.1681
15.0045
15.8846
16.8108
17.7852
18.8105
19.8891
21.0239
22.2178
23.4736
24.7946
26.184
27.6453
29.1821
30.7979
32.4967
34.2824
36.159
38.1305
40.2013
42.3757
44.6578
47.0521
49.5628
52.1943
54.9507
57.8362
60.8548
64.0103
67.3066
70.747
74.335
78.0734
81.9649
86.0119
90.2161
94.579
99.1017
103.785
108.628
113.63
118.791
124.108
129.58
135.203
140.975
146.89
152.944
159.133
165.45
171.89
178.447
185.116
191.89
198.763
205.726
212.772
219.892
227.074
234.306
241.573
248.859
256.138
263.348
270.475
277.503
284.418
291.203
297.844
304.324
310.628
316.744
322.658
328.358
333.833
339.071
344.061
348.794
353.259
357.448
361.354
364.97
368.287
371.297
373.994
376.376
378.439
380.183
381.606
382.708
383.489
383.951
384.094
383.922
383.44
382.653
381.567
380.187
378.521
376.58
374.372
371.905
369.191
366.236
363.056
359.661
356.062
352.272
348.303
344.167
339.876
335.444
330.883
326.206
321.424
316.551
311.598
306.577
301.5
296.378
291.222
286.043
280.851
275.655
270.466
265.291
260.14
255.022
249.945
244.916
239.942
235.03
230.188
225.423
220.741
216.152
211.665
207.289
203.038
198.925
194.965
191.168
187.549
184.09
180.832
11.1927
3.86956
2.58065
2.21616
2.11473
2.12447
2.19469
2.30407
2.44215
2.60332
2.78432
2.98322
3.19889
3.43075
3.67856
3.94242
4.22261
4.51961
4.83405
5.16668
5.51837
5.89006
6.2828
6.69769
7.13592
7.59875
8.0875
8.60358
9.14848
9.72374
10.331
10.9721
11.6488
12.363
13.1169
13.9127
14.7526
15.6391
16.5749
17.5626
18.6053
19.7058
20.8676
22.0939
23.3883
24.7546
26.1967
27.7186
29.3246
31.0191
32.8067
34.692
36.6798
38.7751
40.9828
43.3082
45.7563
48.3323
51.0414
53.8885
56.8786
60.0165
63.3069
66.7542
70.3628
74.1368
78.08
82.1957
86.487
90.9563
95.6059
100.437
105.451
110.648
116.028
121.589
127.331
133.251
139.346
145.612
152.046
158.642
165.393
172.293
179.336
186.513
193.819
201.245
208.786
216.431
224.173
232.002
239.908
247.877
255.895
263.946
272.007
280
287.906
295.707
303.386
310.928
318.316
325.533
332.557
339.374
345.97
352.333
358.448
364.303
369.885
375.185
380.19
384.892
389.281
393.35
397.094
400.506
403.569
406.284
408.65
410.663
412.324
413.632
414.588
415.194
415.452
415.366
414.94
414.181
413.096
411.691
409.974
407.955
405.644
403.052
400.188
397.065
393.694
390.087
386.258
382.219
377.983
373.565
368.975
364.229
359.34
354.321
349.185
343.944
338.613
333.203
327.726
322.195
316.621
311.015
305.388
299.751
294.114
288.485
282.874
277.29
271.741
266.235
260.781
255.385
250.054
244.797
239.62
234.532
229.541
224.657
219.89
215.253
210.758
206.418
202.244
198.245
194.401
190.757
11.9471
4.06723
2.66823
2.26324
2.13937
2.13324
2.19045
2.28816
2.41521
2.56562
2.73594
2.92414
3.12907
3.3501
3.58701
3.83988
4.10901
4.39492
4.69824
5.01979
5.36045
5.72127
6.10333
6.50787
6.93616
7.38959
7.86965
8.3779
8.91602
9.48578
10.0891
10.7279
11.4045
12.121
12.8799
13.6839
14.5355
15.4379
16.394
17.4071
18.4808
19.6186
20.8244
22.1023
23.4565
24.8915
26.4121
28.023
29.7293
31.5363
33.4494
35.4742
37.6163
39.8817
42.2762
44.8059
47.4769
50.2951
53.2667
56.3974
59.693
63.1583
66.7987
70.6191
74.6243
78.8189
83.2068
87.7917
92.5766
97.564
102.756
108.153
113.757
119.567
125.582
131.801
138.221
144.839
151.65
158.652
165.837
173.201
180.734
188.425
196.267
204.251
212.368
220.61
228.968
237.432
245.992
254.636
263.351
272.124
280.938
289.772
298.544
307.217
315.775
324.2
332.474
340.583
348.512
356.238
363.734
370.986
377.983
384.71
391.153
397.299
403.135
408.65
413.833
418.674
423.165
427.298
431.067
434.466
437.486
440.125
442.38
444.252
445.739
446.844
447.568
447.915
447.889
447.495
446.74
445.63
444.175
442.383
440.265
437.83
435.091
432.059
428.746
425.165
421.331
417.256
412.953
408.437
403.723
398.824
393.754
388.528
383.159
377.662
372.049
366.334
360.531
354.653
348.711
342.717
336.685
330.624
324.545
318.46
312.378
306.308
300.26
294.242
288.262
282.329
276.45
270.633
264.886
259.214
253.628
248.134
242.742
237.46
232.301
227.276
222.396
217.674
213.117
208.735
204.505
200.476
12.5734
4.22658
2.73365
2.29353
2.14956
2.12874
2.1736
2.26008
2.37647
2.51649
2.67655
2.85456
3.04931
3.26018
3.48696
3.72974
3.98887
4.26488
4.55848
4.87055
5.20207
5.55418
5.92811
6.32522
6.74699
7.19499
7.67092
8.17659
8.71397
9.28515
9.89236
10.538
11.2247
11.9551
12.7321
13.559
14.4391
15.3759
16.3733
17.4352
18.5659
19.7698
21.0515
22.416
23.8685
25.4143
27.0593
28.8091
30.6699
32.648
34.7497
36.9817
39.3507
41.8635
44.527
47.3482
50.3339
53.4913
56.8271
60.3483
64.061
67.9692
72.0782
76.3934
80.9199
85.6621
90.6238
95.8082
101.218
106.855
112.72
118.814
125.137
131.686
138.461
145.457
152.671
160.099
167.734
175.57
183.602
191.824
200.225
208.782
217.488
226.335
235.311
244.407
253.61
262.91
272.293
281.748
291.259
300.808
310.379
319.875
329.26
338.514
347.621
356.561
365.317
373.872
382.207
390.302
398.137
405.694
412.959
419.916
426.552
432.853
438.806
444.4
449.625
454.471
458.93
462.995
466.66
469.921
472.772
475.211
477.236
478.848
480.048
480.839
481.225
481.211
480.803
480.007
478.832
477.287
475.381
473.126
470.533
467.615
464.384
460.854
457.038
452.95
448.607
444.021
439.208
434.183
428.96
423.556
417.983
412.257
406.393
400.405
394.306
388.111
381.832
375.482
369.074
362.62
356.131
349.619
343.095
336.568
330.049
323.547
317.07
310.627
304.227
297.877
291.584
285.357
279.202
273.128
267.141
261.251
255.466
249.795
244.251
238.842
233.582
228.482
223.547
218.786
214.175
209.769
13.0905
4.35096
2.77934
2.30977
2.14861
2.11492
2.1488
2.22523
2.3321
2.46293
2.61405
2.78332
2.96954
3.1721
3.39084
3.6259
3.87769
4.14684
4.43419
4.74072
5.0676
5.41612
5.78777
6.18415
6.60702
7.05828
7.53997
8.0543
8.60365
9.19062
9.81797
10.4887
11.206
11.9734
12.7946
13.6734
14.6142
15.6215
16.7001
17.8551
19.092
20.4162
21.8331
23.3491
24.9705
26.704
28.5565
30.5351
32.6471
34.8999
37.3011
39.8582
42.5791
45.4714
48.5428
51.801
55.2536
58.9079
62.7717
66.8528
71.1614
75.6912
80.4499
85.4432
90.6753
96.15
101.87
107.837
114.052
120.516
127.228
134.187
141.39
148.834
156.514
164.426
172.564
180.92
189.486
198.254
207.214
216.356
225.666
235.129
244.73
254.456
264.295
274.233
284.255
294.351
304.502
314.699
324.918
335.136
345.244
355.22
365.048
374.709
384.184
393.455
402.505
411.314
419.865
428.139
436.118
443.782
451.118
458.109
464.743
471.005
476.884
482.368
487.449
492.117
496.366
500.189
503.581
506.54
509.062
511.145
512.789
513.997
514.772
515.117
515.038
514.542
513.637
512.332
510.636
508.559
506.114
503.313
500.169
496.697
492.91
488.823
484.451
479.81
474.916
469.783
464.428
458.866
453.113
447.185
441.096
434.862
428.497
422.015
415.431
408.758
402.009
395.197
388.334
381.432
374.502
367.555
360.602
353.652
346.715
339.8
332.915
326.068
319.268
312.522
305.836
299.22
292.678
286.22
279.853
273.585
267.425
261.382
255.467
249.691
244.063
238.596
233.294
228.166
223.187
218.418
13.5352
4.44575
2.80819
2.31513
2.14045
2.09667
2.12199
2.19074
2.29052
2.41477
2.5598
2.72349
2.90471
3.10293
3.31808
3.55044
3.8006
4.06937
4.3578
4.66713
4.99881
5.35451
5.73609
6.14564
6.58544
7.05798
7.56588
8.11193
8.6993
9.33141
10.012
10.7449
11.5346
12.3856
13.3029
14.2918
15.3578
16.5071
17.7461
19.0818
20.5221
22.0729
23.7406
25.5335
27.4596
29.5274
31.7452
34.1214
36.6645
39.3831
42.2856
45.3803
48.6756
52.1794
55.8995
59.8434
64.0181
68.4303
73.0864
77.9919
83.1518
88.5672
94.2408
100.175
106.373
112.834
119.559
126.547
133.796
141.304
149.067
157.081
165.341
173.84
182.572
191.527
200.698
210.074
219.645
229.398
239.322
249.401
259.622
269.967
280.42
290.964
301.582
312.258
322.975
333.723
344.475
355.235
365.915
376.435
386.793
396.977
406.97
416.756
426.316
435.634
444.691
453.471
461.955
470.126
477.967
485.461
492.593
499.348
505.713
511.677
517.227
522.354
527.049
531.305
535.115
538.476
541.384
543.836
545.832
547.372
548.457
549.091
549.277
549.023
548.335
547.223
545.695
543.762
541.435
538.726
535.649
532.218
528.447
524.352
519.948
515.25
510.276
505.041
499.562
493.855
487.937
481.823
475.53
469.072
462.467
455.727
448.868
441.905
434.85
427.717
420.519
413.267
405.974
398.651
391.309
383.957
376.606
369.265
361.943
354.648
347.388
340.171
333.004
325.895
318.85
311.876
304.98
298.169
291.451
284.834
278.326
271.938
265.677
259.556
253.584
247.772
242.123
236.647
231.32
226.208
13.9674
4.51938
2.82448
2.31432
2.13112
2.08168
2.10279
2.16833
2.26584
2.38876
2.5335
2.69809
2.88157
3.08364
3.30449
3.54471
3.80524
4.08731
4.39246
4.7224
5.07912
5.46501
5.88275
6.33535
6.82622
7.35926
7.93803
8.56606
9.24819
9.98951
10.7955
11.672
12.6252
13.6619
14.7892
16.0147
17.3464
18.7928
20.3627
22.0653
23.91
25.906
28.0624
30.3889
32.8952
35.591
38.4856
41.5884
44.908
48.453
52.2313
56.2504
60.5173
65.0383
69.819
74.8643
80.1782
85.7641
91.6243
97.7603
104.172
110.859
117.819
125.05
132.55
140.314
148.338
156.618
165.148
173.919
182.925
192.159
201.611
211.271
221.13
231.177
241.399
251.784
262.319
272.99
283.782
294.677
305.66
316.712
327.813
338.944
350.088
361.221
372.319
383.404
394.39
405.176
415.768
426.161
436.347
446.316
456.055
465.547
474.778
483.732
492.391
500.742
508.766
516.448
523.774
530.727
537.293
543.46
549.215
554.548
559.448
563.907
567.917
571.473
574.57
577.205
579.376
581.083
582.326
583.106
583.428
583.296
582.715
581.695
580.243
578.369
576.086
573.403
570.335
566.895
563.097
558.956
554.489
549.711
544.639
539.289
533.678
527.823
521.741
515.449
508.962
502.297
495.47
488.496
481.39
474.167
466.841
459.425
451.933
444.376
436.767
429.116
421.436
413.737
406.028
398.318
390.617
382.933
375.274
367.648
360.062
352.523
345.037
337.612
330.253
322.967
315.76
308.64
301.614
294.688
287.872
281.174
274.604
268.172
261.888
255.76
249.795
244
238.353
232.924
14.5107
4.58629
2.83556
2.31626
2.13242
2.08521
2.11037
2.18167
2.28675
2.41933
2.57615
2.75567
2.95738
3.18156
3.42904
3.70117
3.99963
4.32677
4.68565
5.07861
5.50875
5.98025
6.49768
7.06609
7.69103
8.37862
9.13533
9.96817
10.8849
11.894
13.0045
14.2259
15.5685
17.0431
18.6608
20.4332
22.3724
24.4903
26.7992
29.3109
32.0373
34.9893
38.1777
41.6124
45.3025
49.2563
53.4812
57.9832
62.7673
67.8373
73.196
78.845
84.7849
91.0152
97.5344
104.34
111.428
118.794
126.432
134.336
142.5
150.914
159.571
168.462
177.579
186.913
196.454
206.193
216.119
226.221
236.49
246.914
257.483
268.186
279.009
289.941
300.97
312.081
323.261
334.493
345.765
357.057
368.349
379.626
390.865
402.037
413.145
424.154
434.995
445.572
455.913
466.021
475.897