/*--------------------------------*- C++ -*----------------------------------*\
| =========                 |                                                 |
| \\      /  F ield         | OpenFOAM: The Open Source CFD Toolbox           |
|  \\    /   O peration     | Version:  2.2.x                                 |
|   \\  /    A nd           | Web:      www.OpenFOAM.org                      |
|    \\/     M anipulation  |                                                 |
\*---------------------------------------------------------------------------*/
FoamFile
{
    version     2.0;
    format      ascii;
    class       volScalarField;
    location    "760";
    object      k;
}
// * * * * * * * * * * * * * * * * * * * * * * * * * * * * * * * * * * * * * //

dimensions      [0 2 -2 0 0 0 0];

internalField   nonuniform List<scalar> 
12225
(
0.773254
1.11727
1.35409
1.50336
1.59083
1.63716
1.65702
1.66036
1.65367
1.64112
1.62537
1.60807
1.59025
1.57254
1.55531
1.53876
1.52275
1.50868
0.492803
0.515897
0.520062
0.519337
0.515968
0.511066
0.505594
0.500235
0.495409
0.491347
0.488153
0.485847
0.484399
0.483756
0.483869
0.484768
0.487061
0.490697
0.412017
0.424095
0.421858
0.414167
0.404224
0.393409
0.38246
0.371808
0.361711
0.35232
0.343712
0.335915
0.328923
0.322712
0.317243
0.312486
0.308405
0.304816
0.381869
0.385949
0.386337
0.383939
0.379748
0.374466
0.368564
0.362354
0.356049
0.349795
0.343692
0.337807
0.332184
0.32685
0.321818
0.317092
0.312664
0.308532
0.375243
0.375519
0.374935
0.373413
0.371106
0.368204
0.364883
0.361285
0.357522
0.353678
0.349819
0.345992
0.342234
0.338571
0.335021
0.331598
0.328309
0.325179
0.373469
0.372204
0.370885
0.369331
0.367504
0.365429
0.363154
0.360729
0.358201
0.35561
0.35299
0.350368
0.347766
0.345202
0.342689
0.340237
0.337855
0.33557
0.372982
0.371101
0.36935
0.367626
0.365876
0.364075
0.362218
0.360314
0.358375
0.356414
0.354447
0.352485
0.35054
0.34862
0.346734
0.344888
0.343088
0.341357
0.372867
0.370792
0.36886
0.367023
0.365244
0.363498
0.361769
0.360051
0.358343
0.356647
0.354966
0.353307
0.351672
0.350066
0.348493
0.346957
0.345462
0.344025
0.372829
0.37068
0.368664
0.366759
0.364944
0.363201
0.361515
0.359875
0.358275
0.356712
0.355184
0.353691
0.352232
0.35081
0.349424
0.348075
0.346766
0.345512
0.372814
0.370635
0.368578
0.366633
0.364788
0.363032
0.361354
0.359745
0.358197
0.356704
0.355262
0.353868
0.35252
0.351215
0.349953
0.348732
0.347553
0.346428
0.372807
0.370616
0.368542
0.366578
0.364715
0.362946
0.361263
0.35966
0.358129
0.356665
0.355263
0.353919
0.352629
0.35139
0.350199
0.349054
0.347955
0.346911
0.372803
0.370607
0.368526
0.366553
0.36468
0.362903
0.361214
0.359608
0.358079
0.356623
0.355234
0.353908
0.352642
0.351431
0.350274
0.349166
0.348107
0.347105
0.3728
0.370601
0.368516
0.366539
0.364662
0.36288
0.361186
0.359577
0.358045
0.356588
0.3552
0.353878
0.352618
0.351416
0.350269
0.349174
0.34813
0.347144
0.372797
0.370597
0.36851
0.36653
0.36465
0.362865
0.361168
0.359556
0.358022
0.356562
0.355172
0.353849
0.352588
0.351386
0.35024
0.349147
0.348105
0.347123
0.372796
0.370594
0.368505
0.366523
0.364641
0.362854
0.361155
0.35954
0.358004
0.356542
0.35515
0.353824
0.352561
0.351357
0.35021
0.349115
0.348071
0.347089
0.372795
0.370592
0.368502
0.366518
0.364635
0.362846
0.361146
0.359529
0.357991
0.356527
0.355133
0.353805
0.35254
0.351334
0.350185
0.349088
0.348043
0.347058
0.372794
0.370591
0.3685
0.366515
0.364631
0.362841
0.361139
0.359521
0.357981
0.356516
0.355121
0.353792
0.352525
0.351318
0.350166
0.349068
0.348021
0.347035
0.372794
0.37059
0.368499
0.366514
0.364629
0.362839
0.361136
0.359517
0.357977
0.356511
0.355114
0.353784
0.352517
0.351308
0.350156
0.349057
0.348009
0.347022
0.372794
0.37059
0.3685
0.366515
0.36463
0.362839
0.361137
0.359517
0.357977
0.356511
0.355114
0.353784
0.352516
0.351307
0.350154
0.349055
0.348007
0.34702
0.372795
0.370591
0.368501
0.366517
0.364632
0.362842
0.36114
0.359521
0.357981
0.356515
0.355119
0.353789
0.352522
0.351313
0.350161
0.349062
0.348014
0.347027
0.372795
0.370593
0.368504
0.36652
0.364637
0.362848
0.361148
0.359531
0.357993
0.356529
0.355135
0.353807
0.352541
0.351334
0.350183
0.349084
0.348037
0.34705
0.372797
0.370596
0.368509
0.36653
0.364652
0.362869
0.361175
0.359565
0.358034
0.356576
0.355187
0.353863
0.352599
0.351393
0.350241
0.349139
0.348087
0.347094
0.3728
0.370607
0.368532
0.36657
0.364713
0.362953
0.361282
0.359692
0.358177
0.35673
0.355347
0.354021
0.35275
0.35153
0.350357
0.34923
0.348147
0.347119
0.372815
0.370662
0.368649
0.366761
0.36498
0.363289
0.361672
0.360118
0.358617
0.357163
0.355752
0.35438
0.353046
0.351749
0.350488
0.349262
0.348073
0.346933
0.372911
0.370959
0.369194
0.367544
0.365953
0.364384
0.362817
0.361246
0.359669
0.35809
0.356513
0.354945
0.353391
0.351856
0.350345
0.348862
0.34741
0.346008
0.373469
0.372366
0.371364
0.370237
0.368904
0.367357
0.365627
0.363755
0.361779
0.359734
0.357647
0.35554
0.353434
0.351341
0.349273
0.347239
0.345247
0.343318
0.376461
0.378228
0.378834
0.378173
0.37655
0.374272
0.371563
0.368577
0.365422
0.362172
0.358881
0.355589
0.352324
0.34911
0.345962
0.342893
0.339913
0.337044
0.392606
0.401341
0.402165
0.399516
0.395305
0.390342
0.385014
0.379525
0.373995
0.368504
0.363108
0.357849
0.352758
0.347857
0.343162
0.33868
0.334414
0.330374
0.438298
0.449783
0.450807
0.449576
0.447828
0.44585
0.443726
0.441503
0.439218
0.436907
0.43461
0.432363
0.430196
0.428133
0.42619
0.424374
0.42267
0.421022
0.544749
0.705345
0.836387
0.946126
1.04199
1.12366
1.19167
1.24712
1.29142
1.32608
1.35255
1.37219
1.3862
1.39562
1.40133
1.40407
1.40448
1.40301
0.00329365
0.00492215
0.00616234
0.0071276
0.00806146
0.00897658
0.00997145
0.0113493
0.0131172
0.0151768
0.0174659
0.0199366
0.0225578
0.0253087
0.0281739
0.0311417
0.0342029
0.0373505
0.0405789
0.0438844
0.0472641
0.0507165
0.0542406
0.0578365
0.0615047
0.0652461
0.0690625
0.0729558
0.0769283
0.0809828
0.0851225
0.0893511
0.0936727
0.0980922
0.102615
0.107249
0.112
0.11688
0.121901
0.127079
0.132434
0.137992
0.143788
0.149865
0.156116
0.16253
0.169108
0.175854
0.18277
0.18986
0.197124
0.204564
0.212182
0.21998
0.227957
0.236114
0.244453
0.252971
0.26167
0.270548
0.279604
0.288837
0.298245
0.307826
0.317576
0.327494
0.337575
0.347816
0.358212
0.368759
0.379453
0.390286
0.401255
0.412351
0.423569
0.434901
0.446339
0.457876
0.469502
0.481209
0.492987
0.504825
0.516713
0.528639
0.540591
0.552556
0.564521
0.576472
0.588394
0.600271
0.612089
0.623831
0.635481
0.647023
0.658444
0.669728
0.680865
0.691849
0.702678
0.713362
0.723924
0.734412
0.744777
0.754857
0.764645
0.774131
0.783303
0.792151
0.800662
0.808826
0.816631
0.824065
0.831119
0.837782
0.844042
0.849891
0.855317
0.860313
0.864869
0.868977
0.872631
0.875824
0.87855
0.880804
0.882582
0.883881
0.884698
0.885031
0.884879
0.884244
0.883125
0.881528
0.879456
0.876912
0.873903
0.870435
0.866517
0.862158
0.85737
0.852163
0.846549
0.84054
0.834153
0.827404
0.820306
0.812877
0.805137
0.797103
0.788791
0.780222
0.771422
0.762401
0.753185
0.743799
0.734248
0.72457
0.714791
0.7049
0.694963
0.684963
0.674908
0.664998
0.655479
0.648265
0.64262
0.637185
0.63182
0.626512
0.621265
0.616087
0.610983
0.605954
0.600996
0.596083
0.591168
0.586123
0.580763
0.574363
0.566145
0.55067
0.00694598
0.0104467
0.014087
0.0173313
0.0200891
0.022659
0.0252718
0.028083
0.0311665
0.0345222
0.0381251
0.0419519
0.0459867
0.0502189
0.0546412
0.0592476
0.0640337
0.0689964
0.0741335
0.0794439
0.0849274
0.0905848
0.0964175
0.102428
0.108618
0.114991
0.12155
0.128301
0.135246
0.142391
0.149741
0.157301
0.165076
0.173074
0.1813
0.189762
0.198466
0.20742
0.216632
0.226109
0.235861
0.245892
0.256211
0.266818
0.277715
0.288907
0.300402
0.312206
0.324324
0.336764
0.34953
0.362626
0.376057
0.389826
0.403938
0.418394
0.433197
0.44835
0.463852
0.479705
0.495909
0.512464
0.529368
0.54662
0.564216
0.582155
0.600431
0.619041
0.637979
0.657239
0.676815
0.696698
0.716881
0.737356
0.758111
0.779138
0.800425
0.821961
0.843733
0.865728
0.887933
0.910332
0.932911
0.955653
0.97854
1.00156
1.02468
1.04789
1.07117
1.09448
1.11782
1.14115
1.16445
1.18768
1.21083
1.23386
1.25675
1.27946
1.30199
1.3243
1.34637
1.36818
1.38951
1.41042
1.43092
1.451
1.47063
1.48979
1.50845
1.5266
1.54421
1.56125
1.57771
1.59356
1.60878
1.62334
1.63723
1.65042
1.66289
1.67463
1.68561
1.69581
1.70521
1.71381
1.72159
1.72853
1.73462
1.73985
1.74421
1.74769
1.75028
1.752
1.75282
1.75275
1.7518
1.74996
1.74725
1.74366
1.73922
1.73394
1.72783
1.7209
1.71318
1.70469
1.69545
1.68549
1.67483
1.6635
1.65154
1.63896
1.62582
1.61214
1.59796
1.58331
1.56823
1.55275
1.53693
1.52077
1.50436
1.4877
1.47072
1.45381
1.43699
1.42047
1.40435
1.38834
1.37244
1.35669
1.34109
1.32569
1.31049
1.2955
1.28074
1.26621
1.25187
1.23766
1.22346
1.209
1.19354
1.17364
0.0100112
0.0174817
0.0231294
0.0273784
0.031101
0.0346844
0.0383519
0.0422367
0.0464022
0.050861
0.0556018
0.0606085
0.0658678
0.0713701
0.0771087
0.0830791
0.0892777
0.0957026
0.102353
0.109227
0.116328
0.123656
0.131213
0.139003
0.147029
0.155295
0.163805
0.172566
0.181582
0.190859
0.200404
0.210223
0.220323
0.23071
0.241394
0.252381
0.26368
0.275297
0.287243
0.299523
0.312146
0.325118
0.338447
0.352139
0.366199
0.380637
0.39546
0.410676
0.426293
0.442318
0.458756
0.475614
0.492898
0.510611
0.528758
0.547343
0.566369
0.585837
0.60575
0.626109
0.646913
0.668163
0.689855
0.711989
0.73456
0.757565
0.780998
0.804853
0.829123
0.853799
0.878873
0.904335
0.930173
0.956375
0.982929
1.00982
1.03703
1.06455
1.09236
1.12045
1.14878
1.17736
1.20614
1.23513
1.26428
1.29359
1.32302
1.35255
1.38215
1.41181
1.44148
1.47114
1.50075
1.53029
1.55971
1.58899
1.61809
1.64697
1.67561
1.70397
1.73203
1.75961
1.78669
1.81326
1.83931
1.86481
1.88974
1.91406
1.93774
1.96077
1.9831
2.00471
2.02557
2.04565
2.06493
2.08337
2.10095
2.11764
2.13341
2.14825
2.16211
2.175
2.18687
2.19772
2.20752
2.21625
2.22391
2.23048
2.23595
2.2403
2.24353
2.24564
2.24662
2.24648
2.24522
2.24284
2.23934
2.23475
2.22907
2.22233
2.21453
2.2057
2.19587
2.18506
2.1733
2.16062
2.14706
2.13265
2.11743
2.10143
2.08471
2.0673
2.04924
2.03059
2.0114
1.99165
1.9715
1.95086
1.92991
1.90875
1.88732
1.86583
1.84437
1.82307
1.80199
1.78103
1.76019
1.73951
1.71903
1.69878
1.67879
1.65909
1.6397
1.62064
1.60192
1.58354
1.56548
1.5477
1.52991
1.51178
0.0125812
0.02429
0.0314168
0.0367412
0.0413748
0.0457955
0.0502668
0.0549399
0.0598922
0.0651519
0.0707202
0.0765875
0.082742
0.0891741
0.0958765
0.102844
0.110074
0.117563
0.125313
0.133323
0.141595
0.15013
0.158934
0.168008
0.177359
0.18699
0.196907
0.207117
0.217625
0.228439
0.239565
0.251012
0.262787
0.274898
0.287353
0.300161
0.313332
0.326872
0.340792
0.355099
0.369802
0.38491
0.40043
0.416371
0.432742
0.449551
0.466807
0.484521
0.502699
0.52135
0.540482
0.560102
0.580216
0.600831
0.621951
0.643581
0.665725
0.688387
0.711569
0.735271
0.759496
0.784242
0.809509
0.835293
0.861592
0.888401
0.915713
0.943522
0.97182
1.0006
1.02984
1.05954
1.08969
1.12026
1.15125
1.18263
1.21439
1.2465
1.27896
1.31173
1.3448
1.37814
1.41173
1.44554
1.47955
1.51374
1.54807
1.58251
1.61705
1.65164
1.68625
1.72085
1.7554
1.78987
1.82421
1.85839
1.89236
1.92608
1.95951
1.99261
2.02533
2.05749
2.08908
2.12007
2.15045
2.18017
2.20921
2.23752
2.26509
2.29186
2.31782
2.34292
2.36713
2.39042
2.41276
2.43412
2.45445
2.47375
2.49196
2.50907
2.52505
2.53987
2.55351
2.56595
2.57717
2.58714
2.59586
2.60331
2.60947
2.61433
2.6179
2.62015
2.6211
2.62075
2.61909
2.61614
2.61189
2.60638
2.59961
2.5916
2.58237
2.57195
2.56037
2.54765
2.53384
2.51896
2.50305
2.48617
2.46834
2.44962
2.43005
2.40968
2.38855
2.36673
2.34429
2.32114
2.2976
2.27359
2.24923
2.22458
2.19969
2.17468
2.14963
2.12467
2.09984
2.07511
2.0505
2.02607
2.00184
1.97788
1.95421
1.93089
1.90794
1.88543
1.86339
1.84188
1.82098
1.80078
1.78122
1.76258
0.0160495
0.0302846
0.0388746
0.0452406
0.0507183
0.0558713
0.0610055
0.0662988
0.0718498
0.0777056
0.0838816
0.0903771
0.0971848
0.104296
0.111705
0.119405
0.127394
0.13567
0.144233
0.153085
0.162227
0.171663
0.181397
0.191433
0.201778
0.212436
0.223414
0.23472
0.246359
0.258341
0.270672
0.283361
0.296417
0.309849
0.323665
0.337875
0.352489
0.367516
0.382966
0.398848
0.415172
0.431948
0.449185
0.466894
0.485084
0.503767
0.522951
0.542648
0.562867
0.583618
0.60491
0.626751
0.64915
0.672115
0.695651
0.719766
0.744464
0.769751
0.79563
0.822104
0.849174
0.876841
0.905105
0.933964
0.963416
0.993454
1.02407
1.05527
1.08703
1.11935
1.15221
1.1856
1.2195
1.25391
1.28879
1.32413
1.35992
1.39612
1.43272
1.46969
1.507
1.54463
1.58255
1.62073
1.65914
1.69776
1.73655
1.77548
1.81451
1.85362
1.89277
1.93191
1.97101
2.01003
2.04892
2.08762
2.12611
2.16431
2.20218
2.23967
2.27669
2.31308
2.34881
2.38387
2.41822
2.4518
2.4846
2.51656
2.54766
2.57784
2.60709
2.63535
2.66258
2.68877
2.71386
2.73782
2.76063
2.78224
2.80262
2.82174
2.83957
2.85609
2.87128
2.88509
2.89753
2.90856
2.91817
2.92635
2.93309
2.93836
2.94217
2.94451
2.94539
2.9448
2.94275
2.93925
2.93431
2.92794
2.92017
2.91101
2.9005
2.88865
2.8755
2.86108
2.84544
2.8286
2.81061
2.79153
2.7714
2.75026
2.72815
2.70518
2.68131
2.65669
2.63141
2.60545
2.57899
2.55204
2.52469
2.49701
2.46906
2.44094
2.41274
2.38455
2.35643
2.32839
2.30045
2.27268
2.24513
2.21785
2.1909
2.16434
2.13822
2.11261
2.0876
2.06329
2.03982
2.01735
1.99589
1.97573
0.0200785
0.0356209
0.045422
0.0527032
0.0589346
0.0647352
0.07044
0.0762477
0.0822763
0.0885905
0.095221
0.102178
0.10946
0.117064
0.124985
0.133218
0.141761
0.150612
0.159774
0.169246
0.179034
0.189139
0.199569
0.210327
0.22142
0.232855
0.244638
0.256778
0.269282
0.282159
0.295418
0.309067
0.323116
0.337575
0.352454
0.367762
0.38351
0.39971
0.416371
0.433505
0.451122
0.469235
0.487854
0.506991
0.526658
0.546867
0.567629
0.588956
0.610861
0.633354
0.656446
0.680149
0.704472
0.729425
0.755016
0.781255
0.808148
0.835702
0.863923
0.892814
0.922381
0.952624
0.983544
1.01514
1.04742
1.08036
1.11397
1.14824
1.18316
1.21872
1.25491
1.29171
1.32911
1.36709
1.40562
1.4447
1.48428
1.52435
1.56488
1.60585
1.64721
1.68895
1.73104
1.77342
1.81609
1.859
1.90211
1.94539
1.98881
2.03233
2.0759
2.11948
2.16304
2.20651
2.24985
2.293
2.33591
2.37851
2.42075
2.46257
2.50376
2.54427
2.58405
2.62306
2.66125
2.69859
2.73503
2.77052
2.80502
2.83849
2.87089
2.90217
2.93231
2.96125
2.98895
3.01539
3.04053
3.06432
3.08673
3.10774
3.1273
3.1454
3.16201
3.17709
3.19064
3.20263
3.21306
3.22189
3.22912
3.23475
3.23875
3.24114
3.24192
3.24108
3.23864
3.23461
3.229
3.22182
3.2131
3.20286
3.19114
3.17796
3.16334
3.14734
3.13
3.11136
3.09144
3.07032
3.04807
3.02467
3.00022
2.97486
2.94858
2.92148
2.89364
2.86511
2.83599
2.80635
2.77625
2.74578
2.715
2.684
2.65286
2.62168
2.59051
2.55938
2.52834
2.49745
2.46678
2.43638
2.40633
2.3767
2.34756
2.31901
2.29116
2.26416
2.23815
2.21333
2.18969
2.16744
0.0239191
0.0401735
0.0509738
0.0590397
0.0659274
0.0722938
0.0784923
0.0847352
0.0911546
0.0978296
0.104804
0.1121
0.119724
0.127678
0.135961
0.14457
0.153505
0.162766
0.172354
0.182272
0.192524
0.203115
0.21405
0.225335
0.236979
0.248987
0.261368
0.274131
0.287284
0.300836
0.314797
0.329177
0.343986
0.359234
0.374934
0.391095
0.407729
0.424849
0.442467
0.460594
0.479245
0.498431
0.518166
0.538463
0.559336
0.580799
0.602867
0.625551
0.648868
0.672829
0.69745
0.722742
0.748718
0.77539
0.802771
0.830869
0.859696
0.889261
0.91957
0.950632
0.982452
1.01503
1.04838
1.08249
1.11737
1.15301
1.18941
1.22657
1.26447
1.3031
1.34245
1.38251
1.42326
1.46467
1.50674
1.54942
1.5927
1.63655
1.68093
1.72582
1.77118
1.81698
1.86318
1.90974
1.95662
2.00379
2.05121
2.09884
2.14663
2.19454
2.24254
2.29056
2.33857
2.3865
2.4343
2.4819
2.52924
2.57625
2.62285
2.66895
2.71432
2.75893
2.80272
2.84564
2.88764
2.92868
2.9687
3.00765
3.04549
3.08217
3.11765
3.15188
3.18482
3.21642
3.24665
3.27547
3.30284
3.32871
3.35306
3.37584
3.39704
3.41661
3.43454
3.4508
3.46537
3.47823
3.48938
3.49879
3.50645
3.51236
3.51651
3.5189
3.51954
3.51844
3.51559
3.51103
3.50475
3.49678
3.48714
3.47586
3.46299
3.44853
3.43253
3.41503
3.39609
3.37574
3.35399
3.33096
3.30673
3.28131
3.25478
3.22724
3.19874
3.16935
3.13916
3.10823
3.07665
3.04448
3.01181
2.97872
2.94527
2.91155
2.87764
2.84362
2.80956
2.7755
2.7415
2.70763
2.67396
2.64057
2.60753
2.57492
2.54285
2.51143
2.48078
2.45108
2.42249
2.39519
2.36912
2.34442
0.0274423
0.0439485
0.055546
0.0642619
0.0717008
0.0785463
0.0851622
0.0917686
0.098506
0.105464
0.112697
0.120236
0.128098
0.136291
0.144816
0.153675
0.162871
0.172404
0.182277
0.192494
0.20306
0.21398
0.225262
0.236912
0.248937
0.261347
0.27415
0.287355
0.300972
0.315011
0.329483
0.344397
0.359767
0.375602
0.391916
0.408721
0.42603
0.443856
0.462214
0.481117
0.500579
0.520617
0.541245
0.562478
0.584333
0.606826
0.629973
0.653791
0.678295
0.703503
0.729431
0.756094
0.783507
0.811687
0.840646
0.8704
0.90096
0.932339
0.964547
0.997594
1.03149
1.06624
1.10184
1.13831
1.17564
1.21384
1.2529
1.29281
1.33357
1.37516
1.41758
1.46081
1.50482
1.54961
1.59514
1.64139
1.68833
1.73592
1.78414
1.83294
1.88229
1.93214
1.98246
2.0332
2.08433
2.13578
2.18753
2.23952
2.29172
2.34406
2.3965
2.449
2.50148
2.5539
2.60619
2.65826
2.71006
2.76149
2.81247
2.8628
2.91233
2.961
3.00876
3.05555
3.10131
3.14599
3.18952
3.23186
3.27296
3.31277
3.35124
3.38832
3.42396
3.45812
3.49077
3.52185
3.55133
3.57917
3.60532
3.62977
3.65247
3.67339
3.69253
3.70984
3.72532
3.73895
3.75072
3.76061
3.76861
3.77472
3.77894
3.78127
3.78172
3.7803
3.77702
3.77189
3.76493
3.75617
3.74563
3.73334
3.71934
3.70367
3.68633
3.66739
3.64694
3.62501
3.60162
3.57688
3.55084
3.52357
3.49512
3.46558
3.43503
3.40352
3.37115
3.33798
3.3041
3.26958
3.23449
3.19893
3.16296
3.12665
3.09011
3.05339
3.01658
2.97973
2.9429
2.90617
2.86961
2.83332
2.79738
2.76188
2.72693
2.69267
2.65925
2.62683
2.59558
2.56566
2.53696
2.50958
0.0306041
0.0469936
0.0592023
0.0684369
0.0763201
0.083554
0.0905085
0.0974069
0.104394
0.111566
0.118984
0.126689
0.134703
0.143041
0.15171
0.160715
0.170061
0.17975
0.189788
0.20018
0.210931
0.222048
0.233538
0.24541
0.257673
0.270334
0.283405
0.296895
0.310815
0.325176
0.339989
0.355267
0.371022
0.387268
0.404016
0.421283
0.439082
0.457428
0.476338
0.495827
0.515912
0.53661
0.557939
0.579918
0.602564
0.625896
0.649934
0.674697
0.700205
0.726476
0.75353
0.781387
0.810064
0.839581
0.869955
0.901203
0.933341
0.966384
1.00035
1.03524
1.07108
1.10787
1.14562
1.18434
1.22402
1.26468
1.3063
1.34889
1.39244
1.43693
1.48237
1.52872
1.57597
1.6241
1.67308
1.72288
1.77346
1.82481
1.87686
1.92959
1.98295
2.03689
2.09136
2.14632
2.20171
2.25749
2.3136
2.36999
2.42661
2.48341
2.54032
2.5973
2.65428
2.71119
2.76796
2.82451
2.88074
2.93657
2.99188
3.04636
3.09997
3.15263
3.20427
3.25483
3.30424
3.35245
3.39939
3.445
3.48923
3.53203
3.57334
3.61312
3.65132
3.68789
3.72279
3.75598
3.78741
3.81705
3.84486
3.8708
3.89484
3.91695
3.93713
3.95534
3.97158
3.98584
3.99809
4.00833
4.01655
4.02275
4.02693
4.02911
4.02929
4.02749
4.02371
4.01798
4.01032
4.00075
3.98928
3.97599
3.96091
3.94408
3.92552
3.90528
3.88345
3.86008
3.83519
3.80888
3.78121
3.75224
3.72203
3.69067
3.65823
3.62478
3.59039
3.55516
3.51914
3.48243
3.4451
3.40723
3.36889
3.33016
3.29112
3.25186
3.21244
3.17294
3.13341
3.09395
3.05463
3.01554
2.97679
2.93848
2.90073
2.86368
2.82749
2.79234
2.75838
2.72575
2.69427
2.66409
0.0333875
0.0493708
0.0620247
0.0716567
0.0798814
0.0874138
0.094627
0.101745
0.108915
0.116235
0.123773
0.131573
0.139667
0.148071
0.1568
0.165861
0.175262
0.185009
0.195108
0.205566
0.216389
0.227586
0.239165
0.251135
0.263506
0.276287
0.28949
0.303126
0.317206
0.331743
0.34675
0.36224
0.378227
0.394725
0.411751
0.42932
0.447448
0.466152
0.485452
0.505364
0.525908
0.547105
0.568974
0.591537
0.614815
0.63883
0.663604
0.68916
0.715521
0.742709
0.770748
0.799661
0.829469
0.860196
0.891861
0.924487
0.958092
0.992696
1.02832
1.06497
1.10266
1.14142
1.18124
1.22214
1.26412
1.30719
1.35134
1.39657
1.44288
1.49026
1.53869
1.58815
1.63863
1.69011
1.74254
1.79591
1.85017
1.90528
1.9612
2.01789
2.07528
2.13334
2.192
2.2512
2.31089
2.37101
2.4315
2.4923
2.55335
2.6146
2.67597
2.73741
2.79885
2.86021
2.9214
2.98235
3.04294
3.10308
3.1625
3.22101
3.27854
3.33502
3.39037
3.44453
3.49742
3.54896
3.5991
3.64778
3.69494
3.74052
3.78447
3.82673
3.86726
3.90601
3.94294
3.97801
4.01117
4.0424
4.07163
4.09884
4.124
4.14709
4.1681
4.18702
4.20382
4.21851
4.23107
4.24149
4.24977
4.25591
4.25993
4.26184
4.26164
4.25935
4.255
4.24861
4.24022
4.22984
4.2175
4.20326
4.18716
4.16924
4.14955
4.12813
4.10505
4.08036
4.05412
4.02639
3.99724
3.96673
3.93494
3.90194
3.86779
3.83257
3.79637
3.75925
3.7213
3.68258
3.64319
3.60319
3.56266
3.52168
3.48034
3.4387
3.39685
3.35485
3.31279
3.27074
3.22879
3.18705
3.1456
3.10458
3.06412
3.02435
2.98544
2.94758
2.91088
2.87548
2.84116
2.80811
0.0357904
0.0511481
0.0641029
0.0740235
0.0824948
0.0902398
0.0976336
0.1049
0.112185
0.11959
0.127185
0.135018
0.143124
0.151526
0.160241
0.16928
0.178655
0.188373
0.198442
0.208871
0.219668
0.230842
0.242403
0.254361
0.266726
0.279511
0.292726
0.306385
0.3205
0.335086
0.350156
0.365726
0.381812
0.398429
0.415596
0.433331
0.451651
0.470578
0.490131
0.510332
0.531203
0.552766
0.575046
0.598066
0.621851
0.646428
0.671821
0.698058
0.725165
0.753168
0.782095
0.811972
0.842825
0.874682
0.907566
0.941504
0.976517
1.01263
1.04986
1.08823
1.12776
1.16846
1.21033
1.25341
1.29768
1.34316
1.38984
1.43773
1.48682
1.53709
1.58855
1.64115
1.6949
1.74975
1.80567
1.86264
1.9206
1.97952
2.03934
2.10002
2.16148
2.22368
2.28655
2.35001
2.414
2.47845
2.5433
2.60848
2.67392
2.73955
2.80531
2.87111
2.9369
3.00257
3.06805
3.13322
3.19798
3.26217
3.32543
3.38769
3.44887
3.50889
3.56768
3.62514
3.68121
3.7358
3.78885
3.84029
3.89006
3.93811
3.98438
4.02882
4.07137
4.11199
4.15064
4.18728
4.22188
4.25439
4.28475
4.31294
4.33894
4.36274
4.38432
4.40367
4.42079
4.43567
4.44834
4.45873
4.46687
4.47278
4.47647
4.47796
4.47727
4.47442
4.46944
4.46236
4.45321
4.44202
4.42883
4.41368
4.39663
4.37771
4.35698
4.33447
4.31026
4.2844
4.25695
4.22796
4.1975
4.16565
4.13246
4.098
4.06235
4.02558
3.98777
3.94898
3.9093
3.8688
3.82756
3.78565
3.74315
3.70013
3.65669
3.61288
3.5688
3.52451
3.4801
3.43565
3.39125
3.34701
3.30303
3.25944
3.21638
3.17399
3.13245
3.09191
3.05251
3.01434
2.97718
2.94126
0.0378227
0.0523962
0.0655281
0.0756416
0.0842741
0.0921523
0.0996525
0.106998
0.114335
0.121763
0.129354
0.137161
0.145219
0.153556
0.162191
0.171141
0.180416
0.190029
0.199989
0.210306
0.22099
0.232051
0.243501
0.255351
0.267612
0.280298
0.293423
0.306999
0.321042
0.335567
0.350591
0.36613
0.382203
0.398829
0.416027
0.433818
0.452223
0.471266
0.490969
0.511358
0.532458
0.554294
0.576895
0.600289
0.624503
0.649568
0.675513
0.702369
0.730168
0.758938
0.788713
0.819523
0.851398
0.884369
0.918465
0.953715
0.990146
1.02779
1.06666
1.10678
1.14818
1.19086
1.23485
1.28015
1.32678
1.37473
1.42402
1.47463
1.52657
1.57982
1.63436
1.69018
1.74725
1.80554
1.86502
1.92563
1.98735
2.05011
2.11386
2.17855
2.24409
2.31044
2.3775
2.44519
2.51344
2.58217
2.6513
2.72075
2.79045
2.86032
2.93028
3.00025
3.07015
3.13989
3.20937
3.27848
3.34708
3.41478
3.48148
3.54707
3.61148
3.67462
3.73642
3.79678
3.8556
3.9128
3.96832
4.0221
4.07406
4.12416
4.17233
4.21851
4.26267
4.30475
4.34471
4.38252
4.41816
4.45159
4.4827
4.51151
4.538
4.56216
4.58399
4.60347
4.62061
4.63542
4.64789
4.65802
4.66582
4.67132
4.67454
4.67549
4.6742
4.6707
4.66502
4.6572
4.64727
4.63528
4.62125
4.60524
4.58729
4.56744
4.54576
4.52229
4.49708
4.47019
4.44169
4.41162
4.38004
4.34704
4.31266
4.27697
4.24005
4.20196
4.16278
4.12258
4.08142
4.03939
3.99655
3.95299
3.90877
3.86397
3.81867
3.77295
3.72688
3.68054
3.63401
3.58739
3.54075
3.49422
3.4479
3.40192
3.35642
3.31156
3.26749
3.22439
3.18236
3.14149
3.10155
3.06282
0.0395061
0.0531873
0.0663906
0.0766138
0.0853317
0.0932713
0.10081
0.108169
0.115495
0.122888
0.13042
0.138144
0.146099
0.154314
0.162811
0.17161
0.180723
0.190164
0.199946
0.210078
0.220574
0.231446
0.242705
0.254365
0.266439
0.278942
0.291889
0.305297
0.319181
0.33356
0.348451
0.363876
0.379854
0.396407
0.413558
0.431331
0.449751
0.468844
0.488637
0.50916
0.530441
0.55251
0.575399
0.59914
0.623766
0.649312
0.675811
0.703298
0.731809
0.76138
0.792045
0.82384
0.8568
0.890959
0.926351
0.963008
1.00096
1.04024
1.08087
1.12288
1.16629
1.2111
1.25735
1.30503
1.35416
1.40474
1.45677
1.51025
1.56517
1.62152
1.67928
1.73842
1.79892
1.86074
1.92383
1.98816
2.05367
2.1203
2.18799
2.25667
2.32627
2.39672
2.46791
2.53974
2.61212
2.68496
2.75818
2.83169
2.9054
2.97922
3.05307
3.12685
3.20048
3.27386
3.34688
3.4194
3.49108
3.56174
3.63128
3.69961
3.76665
3.83232
3.89655
3.95924
4.02021
4.07943
4.13684
4.19237
4.24595
4.29753
4.34705
4.39444
4.43967
4.48269
4.52345
4.56193
4.59809
4.63191
4.66332
4.69233
4.71891
4.74306
4.76478
4.78406
4.80091
4.81535
4.82738
4.83701
4.84426
4.84915
4.85171
4.85197
4.84997
4.84572
4.83928
4.83067
4.81993
4.80712
4.79228
4.77544
4.75666
4.73598
4.71346
4.68914
4.66308
4.63534
4.60596
4.575
4.54253
4.5086
4.47328
4.43662
4.39869
4.35956
4.31929
4.27795
4.23561
4.19234
4.14821
4.10329
4.05765
4.01137
3.96451
3.91717
3.8694
3.82129
3.77293
3.7244
3.67579
3.62722
3.5788
3.53065
3.48293
3.43578
3.38937
3.34384
3.29932
3.25587
3.21328
3.17185
0.0408773
0.0535953
0.0667795
0.0770397
0.0857767
0.0937135
0.101228
0.108542
0.1158
0.123102
0.130522
0.138112
0.145912
0.153955
0.162263
0.170856
0.179752
0.188965
0.198509
0.208397
0.218644
0.229262
0.240266
0.251673
0.263496
0.275753
0.288461
0.301639
0.315306
0.329482
0.34419
0.359451
0.37529
0.391733
0.408805
0.426536
0.444954
0.46409
0.483977
0.504647
0.526134
0.548474
0.571702
0.595854
0.620969
0.647086
0.674244
0.702484
0.731844
0.762365
0.794086
0.827047
0.861286
0.896841
0.933748
0.972042
1.01176
1.05293
1.09558
1.13974
1.18544
1.23267
1.28144
1.33176
1.38365
1.43711
1.49213
1.5487
1.60682
1.66647
1.72761
1.79022
1.85427
1.91972
1.98651
2.05459
2.12389
2.19437
2.26594
2.33852
2.41205
2.48645
2.56162
2.63735
2.71359
2.79023
2.86719
2.94436
3.02164
3.09892
3.17613
3.25314
3.32987
3.40619
3.48201
3.55696
3.63088
3.70368
3.77526
3.84552
3.91437
3.98174
4.04753
4.11166
4.174
4.23448
4.29303
4.34959
4.40408
4.45645
4.50663
4.55458
4.60024
4.64357
4.68455
4.72312
4.75927
4.79297
4.82419
4.85291
4.87913
4.90284
4.92405
4.94275
4.95897
4.97272
4.98402
4.99288
4.99934
5.00341
5.00514
5.00455
5.00169
4.9966
4.98931
4.97986
4.96831
4.95469
4.93905
4.92145
4.90192
4.88051
4.85728
4.83227
4.80554
4.77713
4.74709
4.71549
4.68237
4.64778
4.61179
4.57445
4.53582
4.49595
4.45492
4.41278
4.3696
4.32543
4.28035
4.23442
4.18772
4.1403
4.09224
4.04361
3.99449
3.94495
3.89508
3.84496
3.7947
3.74439
3.69415
3.64412
3.59443
3.54524
3.4967
3.44897
3.40214
3.3563
3.31123
3.26728
0.0419929
0.0536981
0.0667842
0.0770175
0.0857145
0.0935914
0.101026
0.10824
0.115378
0.12254
0.129799
0.137208
0.144809
0.152633
0.160707
0.169051
0.177684
0.186623
0.195884
0.205482
0.215434
0.225755
0.236463
0.247576
0.259112
0.27109
0.283531
0.296456
0.309889
0.323853
0.338374
0.353479
0.369197
0.385557
0.402592
0.420335
0.438821
0.458087
0.478171
0.499112
0.520953
0.54373
0.567483
0.592255
0.618089
0.645031
0.673124
0.702414
0.732944
0.764758
0.797899
0.832407
0.868325
0.905691
0.944542
0.984913
1.02684
1.07035
1.11548
1.16226
1.21074
1.26083
1.31256
1.36594
1.42099
1.47769
1.53603
1.59601
1.6576
1.72077
1.78549
1.85172
1.91943
1.98855
2.05904
2.13082
2.20384
2.27801
2.35325
2.42947
2.50659
2.58451
2.66311
2.74224
2.8218
2.90166
2.98172
3.06186
3.14196
3.22192
3.30161
3.38094
3.45978
3.53801
3.61529
3.69152
3.76663
3.84051
3.91307
3.98422
4.05387
4.12193
4.18831
4.25293
4.31568
4.37649
4.43527
4.49196
4.5465
4.59881
4.64886
4.69657
4.74192
4.78485
4.82534
4.86334
4.89886
4.93185
4.9623
4.9902
5.01555
5.03835
5.0586
5.07632
5.09153
5.10425
5.1145
5.12232
5.12773
5.13077
5.13148
5.1299
5.12606
5.12003
5.11184
5.10153
5.08915
5.07476
5.0584
5.04011
5.01994
4.99795
4.97417
4.94866
4.92146
4.89262
4.86219
4.83021
4.79673
4.7618
4.72547
4.68779
4.64881
4.60858
4.56716
4.5246
4.48096
4.4363
4.39067
4.34414
4.29676
4.24861
4.19975
4.15024
4.10016
4.04958
3.99859
3.94726
3.8957
3.84401
3.79231
3.74072
3.68938
3.63844
3.58806
3.53838
3.4895
3.44151
3.39419
3.34795
0.0429413
0.0535815
0.0664981
0.0766461
0.08525
0.0930158
0.10032
0.107386
0.114357
0.121334
0.128389
0.135576
0.142938
0.150507
0.15831
0.16637
0.174709
0.183345
0.192297
0.201583
0.211221
0.221232
0.231635
0.242453
0.253709
0.265427
0.277631
0.290344
0.303596
0.317416
0.331836
0.346888
0.362609
0.379033
0.396201
0.414153
0.432931
0.452581
0.473148
0.494684
0.517246
0.540867
0.56558
0.59144
0.6185
0.646808
0.676414
0.707366
0.739708
0.773487
0.808743
0.845518
0.883851
0.923776
0.965326
1.00853
1.05342
1.10001
1.14833
1.19838
1.25019
1.30372
1.35897
1.41593
1.4746
1.53497
1.597
1.66067
1.72596
1.79281
1.8612
1.93107
2.00237
2.07504
2.14901
2.22421
2.30056
2.37799
2.45639
2.53568
2.61575
2.69648
2.77776
2.85945
2.94141
3.02352
3.10564
3.18763
3.26937
3.35075
3.43161
3.51188
3.59131
3.66969
3.74699
3.82316
3.8981
3.97174
4.04398
4.11474
4.18392
4.25144
4.31721
4.38115
4.44316
4.50318
4.56111
4.61689
4.67046
4.72175
4.77072
4.8173
4.86147
4.90318
4.9424
4.9791
5.01328
5.0449
5.07396
5.10046
5.1244
5.14578
5.16461
5.18092
5.19473
5.20607
5.21497
5.22148
5.22561
5.22742
5.22694
5.22423
5.21934
5.21231
5.20319
5.19202
5.17887
5.16377
5.14678
5.12794
5.1073
5.08491
5.0608
5.03503
5.00763
4.97865
4.94813
4.9161
4.88262
4.84771
4.81142
4.7738
4.73488
4.69471
4.65334
4.6108
4.56716
4.52245
4.47673
4.43006
4.38248
4.33406
4.28485
4.23492
4.18434
4.13317
4.08149
4.02939
3.97696
3.92431
3.87153
3.81877
3.76615
3.71383
3.66194
3.61064
3.56001
3.51017
3.46091
3.41266
0.0438539
0.0533491
0.0660282
0.0760355
0.084496
0.0921027
0.0992308
0.106103
0.112865
0.119617
0.126431
0.133363
0.140457
0.147745
0.155259
0.163022
0.17106
0.179394
0.188047
0.19704
0.206394
0.216135
0.226289
0.236885
0.247954
0.259532
0.271645
0.284315
0.297582
0.311486
0.326068
0.341371
0.35744
0.374321
0.392065
0.410721
0.430342
0.450983