/*--------------------------------*- C++ -*----------------------------------*\
| =========                 |                                                 |
| \\      /  F ield         | OpenFOAM: The Open Source CFD Toolbox           |
|  \\    /   O peration     | Version:  2.2.x                                 |
|   \\  /    A nd           | Web:      www.OpenFOAM.org                      |
|    \\/     M anipulation  |                                                 |
\*---------------------------------------------------------------------------*/
FoamFile
{
    version     2.0;
    format      ascii;
    class       volScalarField;
    location    "760";
    object      nut;
}
// * * * * * * * * * * * * * * * * * * * * * * * * * * * * * * * * * * * * * //

dimensions      [0 2 -1 0 0 0 0];

internalField   nonuniform List<scalar> 
12225
(
3.09428e-05
3.71944e-05
4.0947e-05
4.3145e-05
4.43824e-05
4.5024e-05
4.52963e-05
4.53419e-05
4.52504e-05
4.50785e-05
4.48616e-05
4.46222e-05
4.43743e-05
4.41265e-05
4.3884e-05
4.365e-05
4.34223e-05
4.32212e-05
0.000116613
6.93679e-05
5.16049e-05
4.24146e-05
3.71537e-05
3.39209e-05
3.18288e-05
3.043e-05
2.94807e-05
2.88382e-05
2.84144e-05
2.81522e-05
2.80128e-05
2.79689e-05
2.80005e-05
2.80918e-05
2.82287e-05
2.83721e-05
0.000365112
0.000223242
0.000162457
0.000127914
0.000106039
9.12436e-05
8.07023e-05
7.28773e-05
6.68792e-05
6.21631e-05
5.83792e-05
5.52934e-05
5.27438e-05
5.06147e-05
4.88201e-05
4.72892e-05
4.59519e-05
4.47819e-05
0.00064461
0.000479077
0.000378699
0.000313447
0.000268352
0.000235786
0.000211394
0.000192559
0.000177644
0.000165582
0.000155651
0.00014735
0.000140318
0.000134293
0.000129077
0.000124513
0.000120482
0.000116972
0.000789269
0.000696798
0.000611915
0.000542049
0.000486074
0.000441339
0.0004053
0.00037592
0.000351669
0.000331411
0.000314299
0.000299698
0.000287123
0.000276205
0.000266653
0.000258241
0.0002508
0.000244301
0.000836146
0.000802042
0.000758902
0.000713886
0.000670962
0.000631878
0.000597095
0.000566458
0.000539571
0.000515972
0.000495217
0.000476907
0.000460696
0.000446289
0.000433439
0.000421943
0.000411642
0.000402522
0.000848366
0.000838515
0.000822833
0.000802885
0.000780483
0.000757157
0.000733986
0.000711649
0.000690523
0.000670787
0.000652492
0.000635616
0.000620092
0.000605836
0.000592754
0.000580757
0.000569769
0.000559843
0.000850836
0.000847527
0.000841611
0.000833095
0.000822395
0.000810101
0.000796808
0.000783022
0.000769142
0.000755456
0.000742163
0.000729393
0.000717224
0.000705696
0.000694824
0.000684608
0.000675046
0.000666259
0.000851475
0.000850225
0.000848
0.000844577
0.000839911
0.000834106
0.000827351
0.000819868
0.00081188
0.000803584
0.000795149
0.000786711
0.000778375
0.00077022
0.000762305
0.000754674
0.000747362
0.000740503
0.000851641
0.00085103
0.00085015
0.000848866
0.000847085
0.000844763
0.000841907
0.000838557
0.000834779
0.00083065
0.00082625
0.000821655
0.000816935
0.00081215
0.000807354
0.000802591
0.000797904
0.000793402
0.000851672
0.000851219
0.000850723
0.000850137
0.000849415
0.000848519
0.000847423
0.000846115
0.000844597
0.00084288
0.000840981
0.000838924
0.000836734
0.000834439
0.000832063
0.000829631
0.000827172
0.00082475
0.000851674
0.000851249
0.000850836
0.000850423
0.000849995
0.000849538
0.000849038
0.000848483
0.000847866
0.000847181
0.000846428
0.000845608
0.000844723
0.000843781
0.000842786
0.000841748
0.000840676
0.000839603
0.000851671
0.000851248
0.000850846
0.000850463
0.000850095
0.000849737
0.000849385
0.000849033
0.000848679
0.000848317
0.000847946
0.000847562
0.000847166
0.000846755
0.000846331
0.000845894
0.000845447
0.000845007
0.000851668
0.000851243
0.000850841
0.00085046
0.000850099
0.000849755
0.000849428
0.000849115
0.000848814
0.000848523
0.000848242
0.000847968
0.000847701
0.000847438
0.000847181
0.000846927
0.000846679
0.000846448
0.000851666
0.000851239
0.000850835
0.000850452
0.00085009
0.000849746
0.00084942
0.00084911
0.000848815
0.000848534
0.000848266
0.00084801
0.000847765
0.000847531
0.000847306
0.00084709
0.000846885
0.0008467
0.000851665
0.000851236
0.000850831
0.000850447
0.000850083
0.000849737
0.000849409
0.000849098
0.000848802
0.00084852
0.000848252
0.000847996
0.000847752
0.00084752
0.000847297
0.000847085
0.000846885
0.000846706
0.000851664
0.000851235
0.000850828
0.000850443
0.000850078
0.000849731
0.000849402
0.000849089
0.000848791
0.000848508
0.000848238
0.000847981
0.000847736
0.000847502
0.000847278
0.000847065
0.000846863
0.000846684
0.000851664
0.000851234
0.000850827
0.000850442
0.000850076
0.000849728
0.000849398
0.000849085
0.000848786
0.000848502
0.000848231
0.000847973
0.000847726
0.000847491
0.000847266
0.000847052
0.000846849
0.000846669
0.000851664
0.000851235
0.000850828
0.000850442
0.000850076
0.000849729
0.000849399
0.000849085
0.000848786
0.000848501
0.00084823
0.00084797
0.000847723
0.000847486
0.00084726
0.000847044
0.00084684
0.000846658
0.000851665
0.000851236
0.00085083
0.000850444
0.000850079
0.000849731
0.000849401
0.000849086
0.000848785
0.000848498
0.000848222
0.000847958
0.000847704
0.000847459
0.000847223
0.000846995
0.000846777
0.000846579
0.000851666
0.000851238
0.000850832
0.000850446
0.000850078
0.000849725
0.000849384
0.000849054
0.000848731
0.000848414
0.0008481
0.000847788
0.000847476
0.000847164
0.00084685
0.000846535
0.00084622
0.000845917
0.000851667
0.000851237
0.000850823
0.000850417
0.00085001
0.000849592
0.000849154
0.000848688
0.000848189
0.000847651
0.000847073
0.000846453
0.000845792
0.000845093
0.000844357
0.000843588
0.000842793
0.000841991
0.000851661
0.000851195
0.000850681
0.000850075
0.000849336
0.000848431
0.000847339
0.000846051
0.000844568
0.0008429
0.000841061
0.000839073
0.000836955
0.00083473
0.000832421
0.000830047
0.000827632
0.000825218
0.00085157
0.000850737
0.000849405
0.000847416
0.000844692
0.000841229
0.000837082
0.000832341
0.000827115
0.000821513
0.000815641
0.000809593
0.000803453
0.000797288
0.000791155
0.0007851
0.000779162
0.000773414
0.000850707
0.000847137
0.000840905
0.000832091
0.000821121
0.000808562
0.000794982
0.000780866
0.000766599
0.000752465
0.000738666
0.000725338
0.000712564
0.000700393
0.000688844
0.00067792
0.000667615
0.000657968
0.000844113
0.000825224
0.00079853
0.000767732
0.00073565
0.000704135
0.000674225
0.000646408
0.00062084
0.000597497
0.000576261
0.000556972
0.000539453
0.000523533
0.00050905
0.000495854
0.000483814
0.00047286
0.000803425
0.000727158
0.00065272
0.000587766
0.000532945
0.000487162
0.000448907
0.000416763
0.00038956
0.000366363
0.000346435
0.000329196
0.000314182
0.000301027
0.000289435
0.000279168
0.000270036
0.000261904
0.000625871
0.000466125
0.000370237
0.000306332
0.000260964
0.000227483
0.000201987
0.000182061
0.000166157
0.000153239
0.00014259
0.000133698
0.00012619
0.000119789
0.000114285
0.000109519
0.00010537
0.000101761
0.000254186
0.000158464
0.000118168
9.48477e-05
7.98521e-05
6.96493e-05
6.24038e-05
5.70869e-05
5.30854e-05
5.00132e-05
4.76163e-05
4.57217e-05
4.42084e-05
4.29895e-05
4.20014e-05
4.1197e-05
4.0541e-05
4.00127e-05
3.69327e-05
4.20256e-05
4.57632e-05
4.86729e-05
5.10793e-05
5.30434e-05
5.4625e-05
5.58815e-05
5.68653e-05
5.76232e-05
5.81955e-05
5.86165e-05
5.8915e-05
5.91148e-05
5.92356e-05
5.92936e-05
5.93022e-05
5.92712e-05
3.39286e-06
8.8879e-06
9.94059e-06
1.06868e-05
1.1358e-05
1.19782e-05
1.26159e-05
1.3448e-05
1.44519e-05
1.55407e-05
1.66676e-05
1.78033e-05
1.8933e-05
2.00488e-05
2.11472e-05
2.22262e-05
2.32852e-05
2.43244e-05
2.53444e-05
2.63462e-05
2.73308e-05
2.82995e-05
2.92535e-05
3.01942e-05
3.11227e-05
3.20404e-05
3.29484e-05
3.38479e-05
3.474e-05
3.56257e-05
3.65062e-05
3.73825e-05
3.82556e-05
3.91266e-05
3.99967e-05
4.08671e-05
4.17392e-05
4.26146e-05
4.34952e-05
4.43833e-05
4.52818e-05
4.61943e-05
4.71253e-05
4.80807e-05
4.90435e-05
5.00101e-05
5.09807e-05
5.19552e-05
5.29337e-05
5.39162e-05
5.49027e-05
5.58929e-05
5.68869e-05
5.78844e-05
5.88852e-05
5.98892e-05
6.0896e-05
6.19054e-05
6.29171e-05
6.39308e-05
6.4946e-05
6.59626e-05
6.698e-05
6.79979e-05
6.90158e-05
7.00333e-05
7.10499e-05
7.20653e-05
7.30788e-05
7.409e-05
7.50984e-05
7.61035e-05
7.71046e-05
7.81014e-05
7.90931e-05
8.00792e-05
8.10592e-05
8.20325e-05
8.29984e-05
8.39563e-05
8.49056e-05
8.58457e-05
8.67758e-05
8.76952e-05
8.86033e-05
8.94993e-05
9.03825e-05
9.12521e-05
9.21072e-05
9.29471e-05
9.3771e-05
9.4578e-05
9.53674e-05
9.61385e-05
9.68905e-05
9.76231e-05
9.83357e-05
9.90284e-05
9.97014e-05
0.000100356
0.000100993
0.000101618
0.000102228
0.000102811
0.000103367
0.000103897
0.0001044
0.000104876
0.000105325
0.000105745
0.000106138
0.000106502
0.000106838
0.000107145
0.000107423
0.000107671
0.00010789
0.00010808
0.000108239
0.000108368
0.000108466
0.000108535
0.000108572
0.000108579
0.000108555
0.000108501
0.000108416
0.0001083
0.000108154
0.000107977
0.00010777
0.000107532
0.000107265
0.000106969
0.000106643
0.000106288
0.000105905
0.000105494
0.000105055
0.00010459
0.000104098
0.000103581
0.000103039
0.000102473
0.000101883
0.000101271
0.000100637
9.99823e-05
9.93078e-05
9.86147e-05
9.7904e-05
9.71763e-05
9.64329e-05
9.56754e-05
9.49038e-05
9.41204e-05
9.33266e-05
9.25217e-05
9.17095e-05
9.08886e-05
9.0061e-05
8.92391e-05
8.84431e-05
8.78209e-05
8.72822e-05
8.67538e-05
8.62278e-05
8.57041e-05
8.51823e-05
8.46634e-05
8.41479e-05
8.36356e-05
8.31265e-05
8.26185e-05
8.21087e-05
8.15879e-05
8.10432e-05
8.04237e-05
7.96724e-05
7.84058e-05
4.92642e-06
2.14637e-05
4.26049e-05
5.76216e-05
6.57633e-05
7.00799e-05
7.27017e-05
7.47311e-05
7.6794e-05
7.91544e-05
8.18696e-05
8.49268e-05
8.82964e-05
9.19484e-05
9.58559e-05
9.99949e-05
0.000104344
0.000108883
0.000113595
0.000118465
0.000123479
0.000128625
0.000133893
0.000139272
0.000144755
0.000150335
0.000156005
0.000161759
0.000167592
0.000173501
0.000179481
0.000185528
0.000191639
0.00019781
0.000204037
0.000210317
0.000216645
0.000223017
0.000229429
0.000235877
0.000242356
0.000248865
0.000255405
0.000261986
0.000268633
0.000275356
0.000282163
0.00028906
0.000296049
0.000303135
0.00031032
0.000317606
0.000324995
0.00033249
0.00034009
0.000347797
0.000355612
0.000363534
0.000371564
0.000379702
0.000387948
0.000396299
0.000404756
0.000413317
0.00042198
0.000430744
0.000439607
0.000448566
0.00045762
0.000466766
0.000476
0.000485321
0.000494726
0.000504211
0.000513773
0.00052341
0.000533118
0.000542894
0.000552735
0.000562637
0.000572598
0.000582614
0.00059268
0.000602794
0.000612949
0.000623142
0.000633367
0.000643617
0.000653885
0.000664161
0.000674437
0.000684701
0.00069494
0.000705138
0.000715279
0.000725343
0.000735308
0.000745149
0.000754836
0.000764334
0.000773599
0.000782578
0.000790994
0.000799207
0.000807255
0.000815143
0.000822867
0.000830423
0.000837808
0.000845016
0.000852044
0.000858887
0.000865539
0.000871997
0.000878254
0.000884307
0.000890149
0.000895776
0.000901182
0.000906362
0.000911311
0.000916024
0.000920497
0.000924724
0.000928702
0.000932426
0.000935893
0.000939098
0.000942037
0.000944706
0.000947103
0.000949225
0.000951071
0.000952638
0.000953925
0.000954929
0.000955651
0.00095609
0.000956249
0.000956128
0.000955727
0.000955048
0.000954094
0.000952871
0.000951381
0.000949626
0.000947615
0.000945354
0.000942846
0.000940099
0.000937123
0.000933924
0.000930508
0.000926891
0.000923079
0.000919074
0.00091491
0.000910573
0.000906093
0.000901499
0.00089675
0.000891784
0.000886422
0.000879651
0.000871682
0.000863364
0.000854939
0.000846487
0.000838038
0.000829612
0.000821221
0.000812873
0.000804571
0.000796313
0.000788086
0.000779863
0.000771569
0.000763067
0.0007534
0.000732976
5.91319e-06
3.62791e-05
7.11268e-05
9.51307e-05
0.000110363
0.000120093
0.000126871
0.000132388
0.000137646
0.000143153
0.000149118
0.000155596
0.000162581
0.000170041
0.000177939
0.00018624
0.000194908
0.000203912
0.000213222
0.00022281
0.000232652
0.000242726
0.000253011
0.000263492
0.000274152
0.000284979
0.000295961
0.000307089
0.000318355
0.000329753
0.000341276
0.000352921
0.000364684
0.000376564
0.000388557
0.000400663
0.000412882
0.000425215
0.000437664
0.000450231
0.000462923
0.000475747
0.000488712
0.000501832
0.000515121
0.00052859
0.00054225
0.000556108
0.000570171
0.000584444
0.000598934
0.000613643
0.000628577
0.000643737
0.000659126
0.000674747
0.000690599
0.000706684
0.000723001
0.000739549
0.000756328
0.000773336
0.000790569
0.000808026
0.000825701
0.000843592
0.000861693
0.000879999
0.000898504
0.000917202
0.000936086
0.000955149
0.000974384
0.000993782
0.00101334
0.00103304
0.00105288
0.00107285
0.00109294
0.00111314
0.00113344
0.00115383
0.0011743
0.00119484
0.00121544
0.00123608
0.00125675
0.00127743
0.0012981
0.00131875
0.00133936
0.0013599
0.00138034
0.00140065
0.0014208
0.00144075
0.00146047
0.00147991
0.00149904
0.00151779
0.00153615
0.00155379
0.00157087
0.00158757
0.00160392
0.00161991
0.00163556
0.00165084
0.00166576
0.0016803
0.00169445
0.00170821
0.00172157
0.00173451
0.00174704
0.00175913
0.00177078
0.00178199
0.00179273
0.001803
0.00181279
0.00182209
0.00183089
0.00183919
0.00184698
0.00185424
0.00186097
0.00186717
0.00187282
0.00187792
0.00188247
0.00188645
0.00188986
0.00189271
0.00189499
0.00189669
0.00189781
0.00189836
0.00189834
0.00189774
0.00189657
0.00189484
0.00189254
0.0018897
0.0018863
0.00188236
0.0018779
0.00187292
0.00186744
0.00186146
0.00185501
0.0018481
0.00184074
0.00183297
0.00182479
0.00181622
0.00180733
0.0017981
0.00178857
0.00177878
0.00176873
0.00175827
0.0017472
0.00173481
0.00172112
0.00170682
0.00169221
0.00167744
0.0016626
0.00164773
0.00163287
0.00161803
0.00160322
0.00158844
0.00157367
0.00155881
0.00154366
0.00152774
0.00150927
0.00147955
6.6284e-06
4.85102e-05
9.35995e-05
0.000126202
0.000148467
0.000163902
0.000175355
0.000184835
0.000193623
0.000202451
0.000211684
0.000221473
0.000231855
0.000242815
0.000254318
0.000266321
0.000278781
0.000291658
0.000304913
0.000318513
0.000332427
0.000346627
0.000361091
0.000375797
0.000390728
0.000405869
0.000421209
0.000436737
0.000452447
0.000468333
0.000484391
0.00050062
0.00051702
0.00053359
0.000550333
0.000567254
0.000584356
0.000601645
0.00061913
0.000636818
0.000654719
0.000672843
0.000691203
0.000709811
0.000728677
0.000747814
0.000767231
0.000786938
0.000806941
0.000827248
0.000847866
0.000868799
0.000890051
0.000911627
0.000933529
0.000955758
0.000978315
0.0010012
0.00102441
0.00104795
0.00107181
0.00109599
0.00112049
0.00114529
0.0011704
0.0011958
0.00122149
0.00124746
0.0012737
0.00130019
0.00132694
0.00135392
0.00138112
0.00140853
0.00143613
0.00146392
0.00149187
0.00151997
0.00154821
0.00157656
0.00160501
0.00163355
0.00166215
0.0016908
0.00171947
0.00174816
0.00177682
0.00180545
0.00183401
0.00186248
0.00189083
0.00191903
0.00194705
0.00197484
0.00200237
0.00202959
0.00205646
0.00208294
0.00210897
0.00213451
0.00215951
0.00218371
0.00220732
0.0022304
0.00225299
0.00227508
0.00229668
0.00231777
0.00233835
0.0023584
0.00237791
0.00239688
0.00241529
0.00243313
0.00245039
0.00246706
0.00248312
0.00249857
0.00251339
0.00252756
0.00254108
0.00255394
0.00256612
0.00257762
0.00258841
0.00259851
0.00260788
0.00261653
0.00262444
0.0026316
0.00263801
0.00264366
0.00264855
0.00265266
0.002656
0.00265855
0.00266032
0.0026613
0.0026615
0.00266092
0.00265955
0.0026574
0.00265448
0.00265079
0.00264634
0.00264114
0.0026352
0.00262854
0.00262117
0.00261311
0.00260437
0.00259498
0.00258495
0.00257432
0.00256313
0.00255137
0.00253912
0.0025264
0.00251324
0.00249965
0.00248566
0.00247115
0.00245598
0.00243977
0.00242248
0.00240447
0.00238602
0.00236729
0.00234839
0.00232937
0.00231029
0.00229119
0.0022721
0.002253
0.00223387
0.00221461
0.00219494
0.00217423
0.00215058
0.00211781
7.48428e-06
5.61071e-05
0.000111051
0.000152455
0.000181969
0.000203316
0.000219625
0.000233175
0.000245491
0.000257512
0.000269762
0.0002825
0.000295828
0.000309767
0.000324294
0.000339371
0.000354954
0.000371
0.000387468
0.000404319
0.000421522
0.000439047
0.000456869
0.000474967
0.000493324
0.000511925
0.000530761
0.000549821
0.000569102
0.000588599
0.00060831
0.000628238
0.000648383
0.00066875
0.000689345
0.000710173
0.000731243
0.000752564
0.000774145
0.000795997
0.000818131
0.00084056
0.000863294
0.000886345
0.000909725
0.000933444
0.000957513
0.000981939
0.00100673
0.0010319
0.00105744
0.00108338
0.0011097
0.00113641
0.00116352
0.00119102
0.00121892
0.00124722
0.0012759
0.00130498
0.00133444
0.00136428
0.00139449
0.00142507
0.001456
0.00148728
0.00151889
0.00155082
0.00158306
0.0016156
0.00164841
0.00168148
0.00171479
0.00174833
0.00178207
0.001816
0.00185009
0.00188432
0.00191868
0.00195313
0.00198765
0.00202222
0.00205681
0.00209141
0.00212598
0.0021605
0.00219494
0.00222927
0.00226346
0.00229749
0.00233132
0.00236492
0.00239825
0.00243127
0.00246394
0.00249622
0.00252806
0.00255942
0.00259026
0.00262051
0.0026501
0.0026789
0.00270705
0.00273459
0.00276154
0.00278791
0.00281368
0.00283885
0.00286341
0.00288735
0.00291066
0.00293333
0.00295534
0.00297668
0.00299735
0.00301733
0.0030366
0.00305516
0.00307298
0.00309006
0.00310639
0.00312195
0.00313673
0.00315071
0.00316389
0.00317626
0.0031878
0.0031985
0.00320836
0.00321734
0.00322546
0.0032327
0.00323905
0.00324451
0.00324906
0.0032527
0.00325543
0.00325724
0.00325813
0.00325809
0.00325713
0.00325525
0.00325245
0.00324873
0.00324411
0.00323858
0.00323217
0.00322487
0.00321671
0.00320771
0.00319788
0.00318724
0.00317582
0.00316365
0.00315076
0.00313719
0.00312296
0.00310813
0.00309272
0.00307675
0.00306024
0.00304314
0.00302536
0.00300672
0.00298717
0.0029669
0.00294611
0.00292493
0.00290348
0.00288183
0.00286005
0.00283819
0.00281629
0.00279437
0.0027724
0.00275029
0.00272779
0.00270426
0.00267812
0.00264539
8.37337e-06
6.05573e-05
0.000124155
0.000174184
0.000211017
0.000238396
0.000259667
0.000277339
0.000293153
0.000308237
0.000323271
0.000338631
0.0003545
0.000370948
0.000387981
0.000405578
0.000423701
0.00044231
0.000461364
0.000480826
0.000500664
0.000520849
0.000541357
0.000562166
0.000583262
0.00060463
0.000626262
0.000648151
0.000670292
0.000692685
0.000715329
0.000738227
0.000761383
0.000784803
0.000808495
0.000832466
0.000856726
0.000881286
0.000906156
0.000931347
0.000956871
0.00098274
0.00100897
0.00103556
0.00106253
0.00108989
0.00111765
0.00114582
0.0011744
0.0012034
0.00123283
0.0012627
0.001293
0.00132374
0.00135492
0.00138654
0.0014186
0.0014511
0.00148403
0.00151739
0.00155117
0.00158537
0.00161997
0.00165497
0.00169036
0.00172611
0.00176222
0.00179868
0.00183545
0.00187254
0.00190991
0.00194755
0.00198543
0.00202353
0.00206183
0.0021003
0.00213891
0.00217765
0.00221647
0.00225536
0.00229428
0.00233321
0.00237211
0.00241095
0.00244971
0.00248836
0.00252686
0.00256518
0.00260329
0.00264117
0.00267877
0.00271607
0.00275303
0.00278961
0.00282577
0.00286147
0.00289668
0.00293134
0.00296542
0.00299889
0.00303155
0.00306346
0.00309469
0.00312528
0.00315522
0.00318452
0.00321318
0.00324117
0.00326851
0.00329517
0.00332114
0.00334642
0.00337099
0.00339484
0.00341797
0.00344035
0.00346198
0.00348284
0.00350292
0.0035222
0.00354068
0.00355833
0.00357516
0.00359114
0.00360627
0.00362052
0.0036339
0.00364638
0.00365795
0.00366861
0.00367833
0.00368711
0.00369494
0.00370182
0.00370771
0.00371263
0.00371655
0.00371948
0.00372142
0.00372234
0.00372225
0.00372114
0.00371903
0.0037159
0.00371176
0.00370661
0.00370047
0.00369334
0.00368523
0.00367616
0.00366614
0.00365519
0.00364334
0.00363062
0.00361706
0.00360269
0.00358756
0.00357169
0.00355511
0.00353786
0.00351996
0.0035014
0.00348212
0.00346206
0.00344119
0.0034196
0.00339743
0.00337479
0.00335179
0.00332852
0.00330504
0.00328142
0.00325771
0.00323396
0.00321016
0.00318625
0.00316203
0.00313698
0.00310986
0.00307824
9.14131e-06
6.32986e-05
0.000133929
0.000191839
0.000235714
0.000269047
0.000295273
0.000317064
0.000336334
0.000354374
0.00037201
0.000389735
0.00040782
0.000426396
0.000445512
0.000465169
0.000485346
0.000506012
0.000527132
0.000548672
0.000570602
0.000592895
0.000615528
0.000638482
0.000661742
0.000685297
0.000709139
0.000733262
0.000757663
0.000782342
0.000807302
0.000832546
0.000858078
0.000883907
0.00091004
0.000936485
0.000963254
0.000990357
0.0010178
0.00104561
0.00107378
0.00110233
0.00113127
0.00116062
0.00119037
0.00122055
0.00125116
0.0012822
0.00131369
0.00134564
0.00137804
0.0014109
0.00144423
0.00147803
0.00151229
0.00154702
0.00158221
0.00161787
0.00165398
0.00169054
0.00172755
0.00176499
0.00180285
0.00184112
0.00187979
0.00191884
0.00195826
0.00199802
0.00203812
0.00207852
0.00211921
0.00216016
0.00220134
0.00224274
0.00228432
0.00232606
0.00236791
0.00240986
0.00245187
0.00249391
0.00253595
0.00257794
0.00261986
0.00266168
0.00270335
0.00274486
0.00278615
0.00282721
0.002868
0.00290849
0.00294864
0.00298842
0.00302781
0.00306676
0.00310525
0.00314323
0.00318067
0.00321753
0.00325376
0.00328932
0.00332407
0.00335809
0.00339143
0.00342409
0.0034561
0.00348744
0.0035181
0.00354809
0.00357739
0.00360599
0.00363388
0.00366106
0.00368751
0.00371322
0.00373818
0.00376237
0.0037858
0.00380843
0.00383027
0.0038513
0.0038715
0.00389086
0.00390938
0.00392703
0.00394382
0.00395972
0.00397472
0.00398881
0.00400197
0.00401419
0.00402547
0.00403577
0.00404511
0.00405346
0.00406081
0.00406714
0.00407244
0.00407672
0.00407996
0.00408214
0.00408325
0.0040833
0.00408228
0.00408019
0.00407702
0.00407276
0.00406745
0.00406105
0.00405359
0.00404508
0.00403553
0.00402496
0.0040134
0.00400087
0.0039874
0.00397301
0.00395775
0.00394165
0.00392473
0.00390703
0.00388857
0.00386937
0.00384941
0.00382867
0.00380715
0.0037849
0.00376202
0.0037386
0.00371473
0.0036905
0.003666
0.00364129
0.00361645
0.00359154
0.00356658
0.00354156
0.00351633
0.0034905
0.00346316
0.0034328
9.79327e-06
6.48415e-05
0.000140972
0.000205818
0.000256244
0.000295288
0.000326348
0.000352184
0.000374835
0.000395729
0.000415816
0.0004357
0.000455741
0.000476138
0.000496987
0.000518324
0.00054015
0.000562447
0.000585191
0.000608354
0.00063191
0.000655835
0.000680109
0.000704714
0.000729639
0.000754872
0.000780406
0.000806238
0.000832366
0.000858791
0.000885514
0.000912541
0.000939877
0.00096753
0.000995508
0.00102382
0.00105248
0.00108149
0.00111087
0.00114062
0.00117076
0.00120131
0.00123226
0.00126363
0.00129543
0.00132767
0.00136036
0.0013935
0.00142711
0.00146118
0.00149572
0.00153075
0.00156624
0.00160222
0.00163868
0.00167562
0.00171303
0.00175091
0.00178926
0.00182807
0.00186733
0.00190703
0.00194716
0.0019877
0.00202865
0.00206999
0.00211169
0.00215375
0.00219613
0.00223882
0.00228179
0.00232503
0.00236849
0.00241216
0.00245599
0.00249997
0.00254406
0.00258822
0.00263242
0.00267662
0.00272079
0.00276489
0.00280888
0.00285273
0.00289639
0.00293984
0.00298303
0.00302593
0.00306852
0.00311075
0.0031526
0.00319404
0.00323504
0.00327556
0.00331558
0.00335506
0.00339397
0.00343228
0.00346995
0.00350688
0.00354306
0.00357855
0.00361336
0.0036475
0.00368098
0.0037138
0.00374594
0.00377739
0.00380816
0.00383822
0.00386758
0.00389621
0.00392411
0.00395127
0.00397769
0.00400334
0.00402822
0.00405231
0.00407561
0.0040981
0.00411976
0.0041406
0.00416059
0.00417973
0.004198
0.0042154
0.0042319
0.00424751
0.00426218
0.00427593
0.00428873
0.00430057
0.00431144
0.00432133
0.00433021
0.00433807
0.0043449
0.00435069
0.00435544
0.0043591
0.00436167
0.00436315
0.00436355
0.00436283
0.00436097
0.00435799
0.00435388
0.00434865
0.0043423
0.00433483
0.00432626
0.0043166
0.00430587
0.00429408
0.00428127
0.00426746
0.00425267
0.00423694
0.0042203
0.00420277
0.00418439
0.00416518
0.00414514
0.00412429
0.00410263
0.0040802
0.00405709
0.00403336
0.00400911
0.00398441
0.00395936
0.00393404
0.00390853
0.00388291
0.00385725
0.00383156
0.00380575
0.00377954
0.00375228
0.00372297
1.03437e-05
6.54778e-05
0.000145726
0.000216499
0.00027286
0.00031725
0.000352925
0.000382662
0.000408581
0.000432209
0.000454605
0.000476471
0.000498249
0.000520208
0.000542497
0.000565189
0.000588313
0.00061187
0.000635849
0.000660232
0.000684998
0.000710128
0.000735606
0.000761416
0.000787548
0.000813992
0.000840743
0.000867798
0.000895156
0.000922818
0.000950788
0.000979069
0.00100767
0.00103659
0.00106585
0.00109546
0.00112541
0.00115573
0.00118642
0.0012175
0.00124897
0.00128084
0.00131313
0.00134585
0.001379
0.00141259
0.00144663
0.00148113
0.0015161
0.00155153
0.00158744
0.00162383
0.0016607
0.00169804
0.00173587
0.00177418
0.00181296
0.00185222
0.00189194
0.00193213
0.00197277
0.00201385
0.00205537
0.0020973
0.00213964
0.00218238
0.00222548
0.00226894
0.00231274
0.00235685
0.00240125
0.00244591
0.0024908
0.0025359
0.00258118
0.00262659
0.00267212
0.00271771
0.00276334
0.00280896
0.00285454
0.00290004
0.00294541
0.00299061
0.00303561
0.00308037
0.00312484
0.00316899
0.00321279
0.0032562
0.00329919
0.00334174
0.00338381
0.00342538
0.00346643
0.00350692
0.00354682
0.00358611
0.00362474
0.00366265
0.00369987
0.00373644
0.00377236
0.00380764
0.00384226
0.00387624
0.00390954
0.00394218
0.00397413
0.00400539
0.00403594
0.00406579
0.00409491
0.00412331
0.00415096
0.00417786
0.00420401
0.00422938
0.00425397
0.00427777
0.00430076
0.00432293
0.00434427
0.00436478
0.00438445
0.00440327
0.00442123
0.00443829
0.00445446
0.00446971
0.00448403
0.00449743
0.00450988
0.00452137
0.00453187
0.00454135
0.00454981
0.00455725
0.00456367
0.004569
0.00457322
0.00457634
0.00457835
0.00457924
0.00457898
0.00457758
0.00457501
0.00457129
0.00456641
0.00456037
0.00455318
0.00454484
0.00453537
0.00452477
0.00451307
0.00450029
0.00448644
0.00447156
0.00445568
0.00443881
0.004421
0.00440226
0.00438262
0.00436209
0.00434071
0.0043185
0.00429553
0.00427186
0.00424758
0.00422278
0.00419754
0.00417195
0.00414611
0.00412012
0.00409406
0.00406798
0.00404185
0.00401547
0.00398835
0.00395981
1.08052e-05
6.54189e-05
0.00014856
0.000224246
0.000285854
0.000335142
0.000375135
0.000408567
0.000437591
0.00046381
0.000488364
0.000512038
0.000535354
0.000558643
0.000582108
0.000605864
0.000629969
0.000654449
0.000679306
0.000704535
0.000730123
0.000756056
0.000782323
0.000808911
0.000835811
0.000863017
0.000890523
0.000918328
0.000946431
0.000974834
0.00100354
0.00103256
0.00106188
0.00109154
0.00112152
0.00115183
0.0011825
0.00121352
0.00124492
0.00127668
0.00130884
0.0013414
0.00137436
0.00140774
0.00144154
0.00147578
0.00151046
0.00154559
0.00158117
0.00161722
0.00165373
0.00169071
0.00172816
0.00176608
0.00180449
0.00184336
0.00188271
0.00192254
0.00196283
0.00200358
0.00204479
0.00208645
0.00212855
0.00217107
0.00221402
0.00225737
0.0023011
0.00234521
0.00238967
0.00243446
0.00247956
0.00252495
0.00257059
0.00261646
0.00266252
0.00270875
0.00275511
0.00280155
0.00284805
0.00289456
0.00294103
0.00298743
0.00303371
0.00307983
0.00312574
0.00317139
0.00321675
0.00326178
0.00330643
0.00335068
0.00339449
0.00343783
0.00348067
0.003523
0.00356478
0.00360599
0.0036466
0.0036866
0.00372594
0.00376466
0.00380275
0.00384023
0.00387709
0.00391334
0.00394896
0.00398394
0.00401828
0.00405196
0.00408497
0.0041173
0.00414895
0.00417989
0.00421013
0.00423965
0.00426845
0.00429652
0.00432384
0.00435041
0.00437622
0.00440124
0.00442548
0.00444892
0.00447157
0.0044934
0.00451442
0.00453463
0.00455401
0.00457253
0.00459017
0.00460693
0.00462279
0.00463776
0.00465183
0.00466499
0.00467716
0.00468835
0.00469854
0.00470773
0.0047159
0.00472301
0.00472904
0.00473399
0.00473783
0.00474055
0.00474213
0.00474255
0.00474181
0.00473988
0.00473678
0.00473248
0.00472699
0.00472031
0.00471245
0.0047034
0.00469318
0.0046818
0.00466929
0.00465565
0.00464092
0.00462512
0.00460827
0.0045904
0.00457154
0.00455172
0.00453096
0.00450929
0.00448678
0.00446349
0.0044395
0.00441488
0.00438973
0.00436415
0.00433825
0.00431213
0.0042859
0.00425964
0.00423335
0.0042069
0.0041799
0.00415186
1.11886e-05
6.48316e-05
0.000149803
0.000229417
0.000295543
0.000349217
0.000393166
0.000430027
0.000461949
0.000490577
0.000517113
0.000542411
0.00056706
0.000591452
0.00061584
0.000640379
0.000665161
0.000690234
0.000715621
0.000741328
0.000767352
0.000793689
0.000820328
0.000847263
0.000874488
0.000901996
0.000929785
0.000957853
0.000986201
0.00101483
0.00104375
0.00107295
0.00110245
0.00113226
0.00116237
0.0011928
0.00122357
0.00125467
0.00128611
0.00131792
0.00135009
0.00138264
0.00141558
0.00144891
0.00148264
0.00151679
0.00155137
0.00158637
0.00162181
0.00165769
0.00169403
0.00173082
0.00176808
0.0018058
0.00184399
0.00188265
0.00192179
0.0019614
0.00200148
0.00204203
0.00208306
0.00212455
0.0021665
0.0022089
0.00225175
0.00229503
0.00233873
0.00238284
0.00242734
0.00247221
0.00251743
0.00256299
0.00260884
0.00265497
0.00270135
0.00274794
0.0027947
0.00284159
0.00288858
0.00293562
0.00298267
0.00302967
0.00307659
0.00312336
0.00316994
0.00321629
0.00326234
0.00330806
0.00335341
0.00339834
0.00344281
0.00348681
0.00353029
0.00357323
0.00361562
0.00365743
0.00369864
0.00373923
0.00377928
0.00381877
0.0038577
0.00389606
0.00393384
0.00397104
0.00400763
0.0040436
0.00407895
0.00411366
0.00414771
0.00418109
0.0042138
0.00424583
0.00427716
0.00430779
0.0043377
0.0043669
0.00439538
0.00442313
0.00445012
0.00447636
0.00450182
0.00452652
0.00455044
0.00457358
0.00459594
0.00461751
0.00463833
0.00465829
0.00467742
0.0046957
0.00471313
0.00472969
0.00474539
0.00476021
0.0047741
0.00478705
0.00479906
0.00481009
0.00482013
0.00482916
0.00483714
0.00484407
0.00484991
0.00485465
0.00485827
0.00486074
0.00486204
0.00486216
0.00486108
0.0048588
0.0048553
0.00485056
0.0048446
0.00483741
0.00482899
0.00481935
0.0048085
0.00479644
0.00478321
0.00476882
0.00475328
0.00473663
0.00471889
0.0047001
0.00468027
0.00465945
0.00463769
0.00461506
0.00459161
0.00456745
0.00454265
0.00451733
0.00449159
0.00446556
0.00443935
0.00441306
0.00438673
0.00436027
0.00433335
0.00430561
1.1503e-05
6.38529e-05
0.000149751
0.00023236
0.000302256
0.000359752
0.000407235
0.000447198
0.000481753
0.000512559
0.00054086
0.000567566
0.000593319
0.000618565
0.000643603
0.000668629
0.000693766
0.000719088
0.000744637
0.000770432
0.000796485
0.000822794
0.00084936
0.000876177
0.000903243
0.000930554
0.000958109
0.000985907
0.00101395
0.00104224
0.00107078
0.00109957
0.00112863
0.00115795
0.00118755
0.00121743
0.00124761