/*--------------------------------*- C++ -*----------------------------------*\
| =========                 |                                                 |
| \\      /  F ield         | OpenFOAM: The Open Source CFD Toolbox           |
|  \\    /   O peration     | Version:  2.2.x                                 |
|   \\  /    A nd           | Web:      www.OpenFOAM.org                      |
|    \\/     M anipulation  |                                                 |
\*---------------------------------------------------------------------------*/
FoamFile
{
    version     2.0;
    format      ascii;
    class       volScalarField;
    location    "760";
    object      p;
}
// * * * * * * * * * * * * * * * * * * * * * * * * * * * * * * * * * * * * * //

dimensions      [0 2 -2 0 0 0 0];

internalField   nonuniform List<scalar> 
12225
(
-1.46851
-4.17333
-5.02125
-5.26086
-5.42498
-5.56625
-5.68018
-5.77479
-5.85853
-5.93566
-6.00815
-6.07725
-6.14395
-6.20895
-6.27261
-6.33406
-6.39002
-6.3566
-5.257
-5.61188
-5.72292
-5.6776
-5.68459
-5.73353
-5.79199
-5.85171
-5.9126
-5.97429
-6.0361
-6.09765
-6.1589
-6.21993
-6.28083
-6.34168
-6.40714
-6.52183
-5.1041
-4.94911
-5.15109
-5.28583
-5.40925
-5.53495
-5.6476
-5.74572
-5.83378
-5.91494
-5.99084
-6.06272
-6.13162
-6.19844
-6.26404
-6.32986
-6.40108
-6.49669
-5.01962
-5.00857
-5.2813
-5.44967
-5.56155
-5.66268
-5.75219
-5.83057
-5.90216
-5.9698
-6.03475
-6.09779
-6.15955
-6.22064
-6.2818
-6.34451
-6.41259
-6.49513
-5.05596
-5.10503
-5.31749
-5.45418
-5.54696
-5.63624
-5.72115
-5.79927
-5.8725
-5.94252
-6.01005
-6.07558
-6.13959
-6.20264
-6.26547
-6.32931
-6.39644
-6.46948
-5.12999
-5.18047
-5.34106
-5.46473
-5.55767
-5.64671
-5.73168
-5.81014
-5.88337
-5.95291
-6.01964
-6.08411
-6.14689
-6.20855
-6.26974
-6.33135
-6.39446
-6.4591
-5.19541
-5.23746
-5.36457
-5.47852
-5.56979
-5.65554
-5.73725
-5.81336
-5.88478
-5.95279
-6.01818
-6.08145
-6.14307
-6.2035
-6.26318
-6.32256
-6.38191
-6.44
-5.24671
-5.28347
-5.39003
-5.49417
-5.58176
-5.664
-5.74278
-5.81696
-5.88704
-5.95398
-6.01841
-6.08076
-6.14139
-6.20063
-6.25879
-6.31603
-6.37229
-6.426
-5.2902
-5.32326
-5.41407
-5.50896
-5.59255
-5.67154
-5.74765
-5.81996
-5.88868
-5.95448
-6.01786
-6.07918
-6.13871
-6.1967
-6.25331
-6.30853
-6.36212
-6.41252
-5.33543
-5.36476
-5.44102
-5.52618
-5.605
-5.68031
-5.75337
-5.82344
-5.89045
-5.95481
-6.01689
-6.07692
-6.13511
-6.19158
-6.24639
-6.29941
-6.35031
-6.39773
-5.38159
-5.40708
-5.4706
-5.54597
-5.61927
-5.69041
-5.76001
-5.82742
-5.89234
-5.95493
-6.01539
-6.07385
-6.1304
-6.1851
-6.23788
-6.28857
-6.3368
-6.38152
-5.42772
-5.44948
-5.50219
-5.56807
-5.63525
-5.70178
-5.76756
-5.83192
-5.89438
-5.95486
-6.01337
-6.06996
-6.12461
-6.17728
-6.22786
-6.27615
-6.32184
-6.36411
-5.47265
-5.491
-5.53475
-5.59181
-5.65258
-5.71418
-5.77585
-5.83682
-5.89647
-5.95449
-6.01076
-6.06519
-6.11768
-6.16814
-6.21641
-6.26231
-6.30561
-6.34569
-5.51499
-5.53038
-5.56684
-5.61606
-5.6705
-5.72703
-5.78444
-5.84178
-5.89833
-5.95363
-6.0074
-6.05945
-6.10961
-6.15774
-6.20368
-6.24727
-6.28834
-6.32647
-5.55291
-5.56587
-5.59658
-5.63914
-5.68773
-5.73934
-5.79251
-5.84617
-5.89949
-5.95191
-6.00303
-6.05257
-6.10033
-6.14611
-6.18978
-6.23121
-6.27026
-6.30664
-5.58405
-5.59514
-5.6215
-5.65878
-5.70236
-5.74956
-5.79881
-5.84897
-5.89917
-5.94875
-5.99724
-6.04431
-6.08972
-6.13327
-6.17482
-6.21427
-6.25153
-6.28638
-5.60514
-5.61493
-5.63831
-5.67183
-5.71165
-5.75536
-5.80142
-5.84865
-5.89615
-5.94322
-5.98937
-6.03424
-6.07756
-6.11915
-6.15888
-6.19666
-6.23243
-6.26602
-5.61108
-5.62025
-5.64224
-5.67398
-5.71193
-5.7538
-5.79806
-5.84354
-5.88934
-5.93476
-5.97932
-6.02264
-6.06448
-6.10466
-6.14305
-6.1796
-6.21425
-6.24686
-5.60149
-5.61069
-5.63284
-5.66484
-5.703
-5.7449
-5.789
-5.83416
-5.87952
-5.92441
-5.96836
-6.01102
-6.05216
-6.09164
-6.12937
-6.16528
-6.19937
-6.23149
-5.58074
-5.59036
-5.61386
-5.64782
-5.68788
-5.73125
-5.77643
-5.82237
-5.86824
-5.91341
-5.95745
-6.00007
-6.04107
-6.08032
-6.11777
-6.15338
-6.18714
-6.21893
-5.55202
-5.5622
-5.58809
-5.62562
-5.66899
-5.71492
-5.76209
-5.80961
-5.85668
-5.90274
-5.94742
-5.99049
-6.03179
-6.07125
-6.10882
-6.14449
-6.17829
-6.21013
-5.51769
-5.52804
-5.5574
-5.60031
-5.64813
-5.69724
-5.74691
-5.79644
-5.84505
-5.89223
-5.93772
-5.98138
-6.02309
-6.06281
-6.10051
-6.13621
-6.16993
-6.20155
-5.47981
-5.48889
-5.52322
-5.57383
-5.62713
-5.67989
-5.73252
-5.7845
-5.83501
-5.88367
-5.93036
-5.97497
-6.01745
-6.05778
-6.09596
-6.13202
-6.16603
-6.19793
-5.4403
-5.44498
-5.48638
-5.54674
-5.60556
-5.66185
-5.71744
-5.77159
-5.82354
-5.8732
-5.92061
-5.96579
-6.00871
-6.04938
-6.08781
-6.124
-6.15795
-6.18939
-5.40038
-5.39664
-5.45201
-5.5244
-5.5877
-5.64785
-5.70769
-5.76534
-5.81989
-5.87152
-5.92046
-5.96679
-6.01058
-6.05188
-6.09077
-6.12726
-6.1614
-6.19315
-5.35744
-5.32814
-5.4135
-5.50151
-5.56389
-5.62234
-5.68179
-5.73932
-5.79405
-5.84629
-5.8962
-5.94372
-5.98883
-6.03153
-6.07184
-6.10968
-6.14486
-6.17668
-5.35141
-5.23654
-5.376
-5.50627
-5.58893
-5.65945
-5.72465
-5.78325
-5.83658
-5.8863
-5.93319
-5.97754
-6.01954
-6.05936
-6.09707
-6.13268
-6.16605
-6.19686
-5.44878
-5.11753
-5.193
-5.29483
-5.38575
-5.4811
-5.57177
-5.65291
-5.72592
-5.79262
-5.85393
-5.91047
-5.96275
-6.01127
-6.05642
-6.09851
-6.13749
-6.17266
-5.74756
-5.81256
-5.84492
-5.77117
-5.73718
-5.74881
-5.77749
-5.81185
-5.84979
-5.89006
-5.93124
-5.97228
-6.01256
-6.05175
-6.08969
-6.12641
-6.16199
-6.19758
-2.05323
-4.24697
-5.0446
-5.26413
-5.3981
-5.51684
-5.61403
-5.69371
-5.76287
-5.82524
-5.88236
-5.93505
-5.98399
-6.02969
-6.07263
-6.11337
-6.15261
-6.19514
-7.02516
-7.02529
-7.02592
-7.02687
-7.02789
-7.02892
-7.03001
-7.03131
-7.03296
-7.03498
-7.03741
-7.04031
-7.04374
-7.04774
-7.05235
-7.05762
-7.06355
-7.07017
-7.07749
-7.08551
-7.09423
-7.10364
-7.11374
-7.12452
-7.13597
-7.14807
-7.16081
-7.17418
-7.18817
-7.20277
-7.21796
-7.23374
-7.2501
-7.26702
-7.28452
-7.30256
-7.32116
-7.34031
-7.35999
-7.38021
-7.40097
-7.42228
-7.44415
-7.46647
-7.4892
-7.51232
-7.53583
-7.55971
-7.58395
-7.60852
-7.63337
-7.65849
-7.68383
-7.70934
-7.73497
-7.76067
-7.78637
-7.81202
-7.83753
-7.86284
-7.88785
-7.91247
-7.93662
-7.96018
-7.98305
-8.00512
-8.02626
-8.04634
-8.06523
-8.08278
-8.09885
-8.11328
-8.1259
-8.13655
-8.14504
-8.15118
-8.15478
-8.15564
-8.15354
-8.14827
-8.1396
-8.12729
-8.11111
-8.09079
-8.06608
-8.03673
-8.00246
-7.96299
-7.91807
-7.8674
-7.81073
-7.74776
-7.67825
-7.60194
-7.51858
-7.42793
-7.32978
-7.22393
-7.11021
-6.98846
-6.85853
-6.72023
-6.57341
-6.41806
-6.25417
-6.08176
-5.90088
-5.71157
-5.51391
-5.308
-5.09395
-4.87192
-4.64205
-4.40454
-4.1596
-3.90746
-3.64839
-3.38265
-3.11057
-2.83246
-2.54868
-2.25959
-1.9656
-1.6671
-1.36453
-1.05831
-0.748907
-0.436781
-0.122407
0.193733
0.511151
0.829357
1.14787
1.4662
1.78388
2.10042
2.41536
2.72826
3.03868
3.3462
3.65044
3.951
4.24753
4.53971
4.82724
5.10982
5.38722
5.65921
5.92561
6.18623
6.44096
6.68967
6.93229
7.16878
7.39907
7.6232
7.84119
8.05306
8.2589
8.45866
8.65273
8.84104
9.02311
9.20042
9.3728
9.53898
9.69955
9.85488
10.0052
10.1507
10.2915
10.4279
10.5599
10.6878
10.8118
10.9323
11.0501
11.1661
11.2884
11.4092
-7.02341
-7.02386
-7.02454
-7.02531
-7.02603
-7.02663
-7.02724
-7.02801
-7.02911
-7.03063
-7.03262
-7.03511
-7.03816
-7.0418
-7.04608
-7.051
-7.05661
-7.06291
-7.0699
-7.0776
-7.086
-7.0951
-7.10488
-7.11533
-7.12645
-7.13821
-7.15062
-7.16364
-7.17728
-7.19153
-7.20636
-7.22178
-7.23777
-7.25433
-7.27145
-7.28912
-7.30735
-7.32612
-7.34542
-7.36526
-7.38562
-7.4065
-7.42789
-7.44975
-7.47204
-7.49474
-7.51785
-7.54134
-7.56519
-7.58938
-7.61386
-7.63861
-7.66358
-7.68873
-7.71402
-7.73938
-7.76476
-7.7901
-7.81531
-7.84033
-7.86508
-7.88945
-7.91337
-7.93673
-7.95942
-7.98132
-8.00233
-8.02231
-8.04113
-8.05865
-8.07472
-8.08918
-8.10188
-8.11264
-8.12129
-8.12765
-8.13151
-8.13269
-8.13097
-8.12614
-8.11797
-8.10623
-8.09068
-8.07107
-8.04715
-8.01867
-7.98534
-7.94691
-7.9031
-7.85363
-7.79823
-7.73663
-7.66857
-7.59378
-7.51202
-7.42305
-7.32666
-7.22264
-7.11081
-6.99105
-6.86315
-6.72686
-6.58204
-6.42871
-6.26687
-6.09654
-5.91775
-5.73055
-5.53501
-5.33122
-5.1193
-4.89937
-4.67161
-4.43619
-4.19332
-3.94322
-3.68615
-3.42238
-3.15221
-2.87597
-2.59399
-2.30665
-2.01433
-1.71743
-1.41636
-1.11158
-0.803511
-0.492625
-0.179388
0.135719
0.452212
0.769605
1.08742
1.40516
1.72237
2.03856
2.35328
2.66606
2.97649
3.28413
3.5886
3.8895
4.18648
4.47922
4.7674
5.05072
5.32895
5.60186
5.86925
6.13093
6.38678
6.63667
6.88052
7.11828
7.34986
7.57533
7.79466
8.00787
8.21514
8.41623
8.61181
8.80178
8.98539
9.16372
9.33667
9.5035
9.66477
9.82078
9.97177
10.1179
10.2594
10.3964
10.5291
10.6577
10.7826
10.904
11.0235
11.1414
11.2681
11.3858
-7.0189
-7.02014
-7.02174
-7.02297
-7.02363
-7.02404
-7.02446
-7.02511
-7.02611
-7.02756
-7.02949
-7.03195
-7.03497
-7.03857
-7.0428
-7.04765
-7.05316
-7.05933
-7.06617
-7.07367
-7.08184
-7.09067
-7.10016
-7.1103
-7.12107
-7.13247
-7.14448
-7.1571
-7.17031
-7.18411
-7.19849
-7.21344
-7.22896
-7.24503
-7.26165
-7.27882
-7.29654
-7.31479
-7.33357
-7.35288
-7.3727
-7.39304
-7.41386
-7.43515
-7.45689
-7.47906
-7.50164
-7.52461
-7.54795
-7.57162
-7.5956
-7.61986
-7.64434
-7.66902
-7.69384
-7.71874
-7.74367
-7.76857
-7.79337
-7.81798
-7.84234
-7.86635
-7.88992
-7.91295
-7.93533
-7.95697
-7.97773
-7.99749
-8.01613
-8.0335
-8.04946
-8.06386
-8.07654
-8.08733
-8.09606
-8.10255
-8.10662
-8.10805
-8.10666
-8.10222
-8.09452
-8.08334
-8.06842
-8.04953
-8.02643
-7.99885
-7.96652
-7.92919
-7.88657
-7.83841
-7.78441
-7.72432
-7.65786
-7.58477
-7.50481
-7.41773
-7.32331
-7.22135
-7.11169
-6.99417
-6.86851
-6.73444
-6.59191
-6.44091
-6.28144
-6.11352
-5.93716
-5.75241
-5.55934
-5.35805
-5.14863
-4.93121
-4.70596
-4.47304
-4.23265
-3.98502
-3.73039
-3.46903
-3.20123
-2.92731
-2.6476
-2.36247
-2.07228
-1.77745
-1.47838
-1.1755
-0.869246
-0.560076
-0.248452
0.06515
0.380249
0.696365
1.01302
1.32973
1.64602
1.96143
2.27549
2.58774
2.89776
3.20513
3.50945
3.81033
4.1074
4.40035
4.68886
4.97262
5.25138
5.52493
5.79304
6.05553
6.31227
6.56312
6.80797
7.04683
7.27946
7.50609
7.72663
7.94104
8.14971
8.35222
8.549
8.7401
8.92489
9.10454
9.27902
9.44751
9.61046
9.76808
9.92057
10.0681
10.211
10.3493
10.4833
10.6132
10.7395
10.8626
10.9843
11.1039
11.2346
11.3421
-7.0128
-7.01491
-7.01773
-7.01981
-7.02105
-7.02192
-7.02272
-7.02367
-7.02492
-7.02656
-7.02866
-7.03126
-7.03439
-7.03809
-7.04238
-7.04726
-7.05276
-7.05889
-7.06564
-7.07303
-7.08104
-7.08969
-7.09895
-7.10883
-7.11932
-7.13042
-7.14211
-7.15438
-7.16723
-7.18066
-7.19465
-7.20921
-7.22432
-7.23998
-7.25618
-7.27293
-7.29022
-7.30804
-7.32638
-7.34525
-7.36462
-7.3845
-7.40487
-7.42572
-7.44702
-7.46877
-7.49093
-7.5135
-7.53644
-7.55973
-7.58333
-7.60722
-7.63135
-7.65568
-7.68017
-7.70475
-7.72937
-7.75398
-7.77849
-7.80284
-7.82694
-7.85072
-7.87407
-7.89691
-7.91912
-7.94061
-7.96124
-7.98091
-7.99948
-8.01681
-8.03277
-8.0472
-8.05995
-8.07085
-8.07974
-8.08643
-8.09075
-8.09249
-8.09146
-8.08745
-8.08024
-8.0696
-8.05531
-8.03712
-8.01478
-7.98805
-7.95665
-7.92031
-7.87878
-7.83177
-7.77901
-7.72022
-7.65515
-7.58351
-7.50507
-7.41957
-7.32679
-7.22653
-7.11864
-7.00291
-6.87898
-6.7466
-6.60583
-6.45662
-6.29896
-6.13287
-5.95837
-5.7755
-5.58433
-5.38493
-5.17741
-4.9619
-4.73854
-4.50751
-4.269
-4.02322
-3.77042
-3.51085
-3.24481
-2.97261
-2.69458
-2.41107
-2.12246
-1.82914
-1.53151
-1.23001
-0.92506
-0.617114
-0.306635
0.00590578
0.320031
0.635261
0.951117
1.26713
1.58282
1.89772
2.21137
2.52331
2.83311
3.14036
3.44465
3.74559
4.04282
4.33601
4.62485
4.909
5.18824
5.46236
5.73107
5.99422
6.25172
6.50332
6.74897
6.98876
7.22221
7.44983
7.67161
7.88711
8.0968
8.30037
8.49816
8.69024
8.87614
9.05678
9.23217
9.40174
9.56578
9.72446
9.87798
10.0265
10.1703
10.3095
10.4444
10.5752
10.7025
10.8265
10.9491
11.0685
11.1992
11.2945
-7.00694
-7.00976
-7.01382
-7.01699
-7.01907
-7.02061
-7.02199
-7.02345
-7.02513
-7.02716
-7.0296
-7.03251
-7.03592
-7.03986
-7.04434
-7.04938
-7.055
-7.06119
-7.06797
-7.07534
-7.0833
-7.09185
-7.10098
-7.11069
-7.12099
-7.13186
-7.1433
-7.1553
-7.16787
-7.18099
-7.19466
-7.20889
-7.22366
-7.23898
-7.25484
-7.27124
-7.28817
-7.30563
-7.32362
-7.34213
-7.36116
-7.38069
-7.40071
-7.42122
-7.44219
-7.46362
-7.48548
-7.50775
-7.53041
-7.55342
-7.57677
-7.60041
-7.62431
-7.64841
-7.67268
-7.69706
-7.7215
-7.74593
-7.77028
-7.79448
-7.81846
-7.84211
-7.86537
-7.88812
-7.91027
-7.93171
-7.95233
-7.97199
-7.99058
-8.00797
-8.024
-8.03853
-8.05142
-8.06249
-8.07158
-8.07852
-8.08312
-8.08519
-8.08453
-8.08094
-8.0742
-8.06409
-8.05038
-8.03282
-8.01117
-7.98518
-7.95459
-7.91912
-7.8785
-7.83246
-7.78072
-7.723
-7.65903
-7.58855
-7.51129
-7.42702
-7.33549
-7.23651
-7.12993
-7.01544
-6.89264
-6.76144
-6.62186
-6.47387
-6.31746
-6.15262
-5.97939
-5.7978
-5.6079
-5.40979
-5.20355
-4.98932
-4.76724
-4.53747
-4.3002
-4.05565
-3.80405
-3.54566
-3.28077
-3.00968
-2.73272
-2.45025
-2.16263
-1.87026
-1.57353
-1.27288
-0.968728
-0.661519
-0.351717
-0.0397939
0.273774
0.588508
0.903932
1.21958
1.53498
1.84966
2.16314
2.47497
2.78474
3.09203
3.39643
3.69752
3.99495
4.28843
4.57761
4.86211
5.14178
5.4164
5.68561
5.94927
6.20742
6.45964
6.70593
6.94658
7.181
7.40945
7.63198
7.8483
8.05873
8.26309
8.46161
8.65433
8.84101
9.02223
9.19805
9.36814
9.53273
9.69197
9.84603
9.9951
10.1394
10.2791
10.4144
10.5457
10.6733
10.7975
10.9202
11.0381
11.1668
11.2508
-7.00279
-7.00616
-7.01119
-7.01538
-7.01832
-7.0206
-7.02262
-7.02464
-7.02683
-7.02931
-7.03215
-7.03543
-7.03916
-7.04337
-7.0481
-7.05334
-7.05911
-7.06541
-7.07226
-7.07965
-7.0876
-7.09609
-7.10514
-7.11473
-7.12488
-7.13557
-7.14682
-7.1586
-7.17093
-7.18381
-7.19722
-7.21118
-7.22568
-7.24071
-7.25629
-7.2724
-7.28905
-7.30623
-7.32394
-7.34217
-7.36093
-7.38019
-7.39996
-7.42022
-7.44096
-7.46216
-7.48381
-7.50588
-7.52835
-7.55119
-7.57437
-7.59786
-7.62162
-7.6456
-7.66976
-7.69404
-7.71839
-7.74274
-7.76703
-7.79118
-7.81512
-7.83876
-7.86201
-7.88477
-7.90694
-7.92842
-7.94909
-7.96883
-7.98752
-8.00502
-8.02119
-8.03588
-8.04896
-8.06024
-8.06958
-8.07679
-8.0817
-8.08411
-8.08384
-8.08066
-8.07438
-8.06478
-8.05161
-8.03464
-8.01362
-7.98831
-7.95843
-7.92372
-7.88389
-7.83868
-7.78781
-7.73098
-7.66792
-7.59837
-7.52205
-7.43872
-7.34815
-7.25014
-7.14454
-7.03083
-6.90871
-6.77827
-6.63949
-6.49231
-6.33672
-6.17271
-6.00032
-5.81957
-5.63052
-5.43326
-5.22787
-5.01447
-4.79322
-4.56426
-4.3278
-4.08404
-3.83321
-3.57556
-3.31139
-3.04099
-2.76469
-2.48286
-2.19584
-1.90404
-1.60786
-1.30771
-1.00401
-0.697214
-0.387786
-0.076197
0.237077
0.551557
0.866769
1.18226
1.49756
1.81216
2.12561
2.43744
2.74726
3.05468
3.35921
3.66046
3.95809
4.25185
4.54133
4.8261
5.10609
5.38118
5.65077
5.91482
6.17358
6.42652
6.67345
6.91461
7.14963
7.37865
7.60169
7.81857
8.02951
8.23439
8.43337
8.62651
8.81367
8.99524
9.17129
9.34167
9.50657
9.66611
9.82048
9.96984
10.1144
10.2543
10.3899
10.5213
10.649
10.773
10.8951
11.011
11.1375
11.2111
-7.0014
-7.00504
-7.01065
-7.0156
-7.01928
-7.02221
-7.02482
-7.02737
-7.03004
-7.03295
-7.03618
-7.0398
-7.04384
-7.04832
-7.05328
-7.05871
-7.06463
-7.07105
-7.07798
-7.08541
-7.09336
-7.10182
-7.11081
-7.12032
-7.13035
-7.1409
-7.15199
-7.1636
-7.17574
-7.18841
-7.20162
-7.21536
-7.22964
-7.24445
-7.2598
-7.27569
-7.29212
-7.30908
-7.32658
-7.34461
-7.36317
-7.38225
-7.40184
-7.42194
-7.44252
-7.46358
-7.4851
-7.50705
-7.52942
-7.55217
-7.57527
-7.59869
-7.6224
-7.64634
-7.67046
-7.69473
-7.71907
-7.74344
-7.76774
-7.79193
-7.81591
-7.8396
-7.86291
-7.88575
-7.90802
-7.9296
-7.95039
-7.97027
-7.9891
-8.00676
-8.02311
-8.03801
-8.0513
-8.06283
-8.07243
-8.07993
-8.08516
-8.08792
-8.08802
-8.08526
-8.07942
-8.07029
-8.05763
-8.0412
-8.02076
-7.99606
-7.96682
-7.93278
-7.89365
-7.84915
-7.799
-7.74291
-7.68059
-7.61178
-7.53619
-7.45358
-7.36372
-7.26643
-7.16144
-7.04815
-6.92641
-6.79642
-6.6581
-6.51141
-6.35631
-6.19282
-6.02094
-5.84071
-5.65218
-5.45543
-5.25055
-5.03766
-4.81691
-4.58845
-4.35246
-4.10916
-3.85878
-3.60156
-3.33779
-3.06778
-2.79186
-2.51036
-2.22368
-1.93218
-1.63628
-1.33638
-1.03291
-0.7263
-0.417035
-0.105585
0.207574
0.521959
0.8371
1.15257
1.46787
1.78251
2.096
2.40787
2.71779
3.02537
3.33006
3.63143
3.92921
4.22323
4.513
4.79792
5.07819
5.35374
5.62383
5.88835
6.14744
6.40074
6.64809
6.88959
7.125
7.35438
7.57775
7.79499
8.00623
8.21144
8.4107
8.60408
8.79151
8.97327
9.14945
9.31999
9.48504
9.64475
9.79927
9.94878
10.0935
10.2335
10.3691
10.5005
10.628
10.7515
10.8728
10.9864
11.1107
11.175
-7.00282
-7.00652
-7.01237
-7.0178
-7.02203
-7.02548
-7.02858
-7.03158
-7.03465
-7.03792
-7.04148
-7.04538
-7.04968
-7.05438
-7.05952
-7.06511
-7.07116
-7.07767
-7.08465
-7.09211
-7.10006
-7.1085
-7.11743
-7.12686
-7.1368
-7.14724
-7.1582
-7.16967
-7.18166
-7.19417
-7.20721
-7.22079
-7.23489
-7.24954
-7.26472
-7.28045
-7.29672
-7.31353
-7.33089
-7.34879
-7.36722
-7.38618
-7.40567
-7.42567
-7.44618
-7.46717
-7.48863
-7.51054
-7.53288
-7.55562
-7.57872
-7.60215
-7.62587
-7.64985
-7.67402
-7.69834
-7.72275
-7.74719
-7.77158
-7.79586
-7.81995
-7.84375
-7.86719
-7.89016
-7.91257
-7.93431
-7.95526
-7.9753
-7.99432
-8.01217
-8.02873
-8.04385
-8.05738
-8.06916
-8.07903
-8.08683
-8.09237
-8.09546
-8.09593
-8.09355
-8.08813
-8.07943
-8.06724
-8.05131
-8.0314
-8.00724
-7.97856
-7.9451
-7.90657
-7.86268
-7.81313
-7.75765
-7.69593
-7.62769
-7.55266
-7.47059
-7.38126
-7.28449
-7.17969
-7.06642
-6.94486
-6.81508
-6.67698
-6.53052
-6.37567
-6.21243
-6.04081
-5.86085
-5.67258
-5.47609
-5.27147
-5.05884
-4.83833
-4.61011
-4.37435
-4.13128
-3.8811
-3.62407
-3.36047
-3.09062
-2.81484
-2.53348
-2.24691
-1.95551
-1.6597
-1.35988
-1.05645
-0.749861
-0.440603
-0.129149
0.184023
0.498425
0.813587
1.12913
1.44454
1.75927
2.07286
2.38476
2.6948
3.0026
3.30747
3.60892
3.9068
4.20112
4.49124
4.77653
5.0571
5.33282
5.60316
5.86798
6.12729
6.38081
6.62842
6.87013
7.10577
7.33536
7.55891
7.77635
7.98776
8.19311
8.3925
8.58598
8.77353
8.95537
9.13157
9.30215
9.46724
9.627
9.78155
9.93109
10.0758
10.2158
10.3513
10.4825
10.6096
10.7324
10.8526
10.964
11.0862
11.1422
-7.00682
-7.01042
-7.01623
-7.02188
-7.02645
-7.03028
-7.03373
-7.03706
-7.04044
-7.04398
-7.04778
-7.0519
-7.05637
-7.06123
-7.0665
-7.07218
-7.0783
-7.08486
-7.09187
-7.09933
-7.10726
-7.11566
-7.12454
-7.1339
-7.14375
-7.1541
-7.16495
-7.17631
-7.18818
-7.20057
-7.21349
-7.22693
-7.24092
-7.25545
-7.27052
-7.28614
-7.30231
-7.31903
-7.33631
-7.35413
-7.37251
-7.39142
-7.41088
-7.43086
-7.45135
-7.47234
-7.49382
-7.51576
-7.53813
-7.56092
-7.58408
-7.60759
-7.6314
-7.65547
-7.67974
-7.70418
-7.72871
-7.75328
-7.77781
-7.80224
-7.82647
-7.85043
-7.87403
-7.89717
-7.91975
-7.94167
-7.9628
-7.98303
-8.00225
-8.02031
-8.03708
-8.05242
-8.06618
-8.07821
-8.08834
-8.09641
-8.10224
-8.10564
-8.10643
-8.10441
-8.09935
-8.09105
-8.07928
-8.06379
-8.04433
-8.02064
-7.99246
-7.9595
-7.92147
-7.87808
-7.82904
-7.77403
-7.71277
-7.64497
-7.57033
-7.48862
-7.39965
-7.30309
-7.19815
-7.08469
-6.96311
-6.83334
-6.69527
-6.54885
-6.39406
-6.23088
-6.05932
-5.87943
-5.69123
-5.49481
-5.29026
-5.07769
-4.85724
-4.62907
-4.39337
-4.15033
-3.90019
-3.64317
-3.37957
-3.1097
-2.8339
-2.55252
-2.26591
-1.97448
-1.67862
-1.37877
-1.07526
-0.768554
-0.459193
-0.147637
0.165633
0.480111
0.795329
1.11101
1.42662
1.7415
2.0552
2.3671
2.67728
2.98538
3.29047
3.59219
3.89035
4.18479
4.47502
4.76056
5.04133
5.31716
5.58765
5.85265
6.11207
6.36572
6.61346
6.85526
7.091
7.32068
7.54429
7.76179
7.97323
8.17861
8.37801
8.57146
8.75901
8.94081
9.11694
9.28746
9.4525
9.61219
9.76669
9.91614
10.0607
10.2006
10.3359
10.4667
10.5934
10.7154
10.8343
10.9435
11.0637
11.1124
-7.01299
-7.01636
-7.02195
-7.02758
-7.03231
-7.03634
-7.04002
-7.04356
-7.04713
-7.05085
-7.0548
-7.05903
-7.06361
-7.06854
-7.07386
-7.07958
-7.08572
-7.09227
-7.09927
-7.1067
-7.11459
-7.12293
-7.13174
-7.14103
-7.1508
-7.16106
-7.17182
-7.18309
-7.19487
-7.20717
-7.22
-7.23337
-7.24727
-7.26173
-7.27674
-7.2923
-7.30843
-7.32512
-7.34237
-7.36019
-7.37856
-7.39749
-7.41697
-7.43699
-7.45753
-7.47859
-7.50014
-7.52216
-7.54464
-7.56753
-7.59081
-7.61444
-7.63839
-7.6626
-7.68703
-7.71162
-7.73631
-7.76105
-7.78575
-7.81035
-7.83476
-7.8589
-7.88268
-7.906
-7.92876
-7.95085
-7.97217
-7.99259
-8.01199
-8.03023
-8.0472
-8.06273
-8.0767
-8.08894
-8.09929
-8.10759
-8.11366
-8.11733
-8.11839
-8.11666
-8.11192
-8.10395
-8.09252
-8.0774
-8.05832
-8.03503
-8.00725
-7.9747
-7.93709
-7.89411
-7.84545
-7.79081
-7.72989
-7.66237
-7.58799
-7.50653
-7.41777
-7.32093
-7.21548
-7.10181
-6.98008
-6.85018
-6.71199
-6.56547
-6.41059
-6.24733
-6.0757
-5.89573
-5.70746
-5.51098
-5.30636
-5.09372
-4.8732
-4.64496
-4.40917
-4.16606
-3.91582
-3.65869
-3.39497
-3.12498
-2.84906
-2.56754
-2.28081
-1.98925
-1.69327
-1.39333
-1.08966
-0.782748
-0.473216
-0.161503
0.151909
0.466482
0.781741
1.0976
1.41347
1.72854
2.04243
2.35464
2.665
2.97314
3.27836
3.58029
3.87864
4.17318
4.46348
4.74915
5.03003
5.30591
5.57647
5.84153
6.10098
6.35465
6.60241
6.8442
7.07994
7.30959
7.53315
7.75059
7.96195
8.16725
8.36654
8.55988
8.74732
8.92899
9.10497
9.27535
9.44025
9.5998
9.75414
9.90343
10.0478
10.1874
10.3224
10.4528
10.5789
10.6999
10.8175
10.9246
11.0429
11.0854
-7.02085
-7.02392
-7.02912
-7.03456
-7.03927
-7.04336
-7.04712
-7.05075
-7.05441
-7.05819
-7.06219
-7.06646
-7.07105
-7.07598
-7.08128
-7.08697
-7.09306
-7.09957
-7.1065
-7.11387
-7.12169
-7.12996
-7.13869
-7.1479
-7.15759
-7.16778
-7.17846
-7.18966
-7.20137
-7.21361
-7.22639
-7.23971
-7.25359
-7.26802
-7.28301
-7.29857
-7.31471
-7.33142
-7.3487
-7.36656
-7.38499
-7.40399
-7.42355
-7.44366
-7.4643
-7.48547
-7.50715
-7.5293
-7.55192
-7.57496
-7.5984
-7.6222
-7.64631
-7.67069
-7.6953
-7.72007
-7.74494
-7.76986
-7.79474
-7.81951
-7.8441
-7.86841
-7.89236
-7.91584
-7.93876
-7.96101
-7.98248
-8.00305
-8.02259
-8.04098
-8.05809
-8.07377
-8.08788
-8.10026
-8.11077
-8.11923
-8.12548
-8.12933
-8.13059
-8.12907
-8.12456
-8.11684
-8.10567
-8.09083
-8.07205
-8.04906
-8.0216
-7.98937
-7.95207
-7.90938
-7.86101
-7.80662
-7.74591
-7.67857
-7.60433
-7.52298
-7.43403
-7.33651
-7.23047
-7.11653
-6.99456
-6.86444
-6.72605
-6.57932
-6.42425
-6.26081
-6.08901
-5.90888
-5.72046
-5.52382
-5.31905
-5.10626
-4.88558
-4.65719
-4.42125
-4.178
-3.92762
-3.67029
-3.40637
-3.1362
-2.8601
-2.57841
-2.2915
-1.99977
-1.70365
-1.40364
-1.09984
-0.792659
-0.482924
-0.171024
0.142579
0.457383
0.772916
1.08891
1.40485
1.72007
2.03413
2.34658
2.65709
2.96528
3.27059
3.57264
3.8711
4.16567
4.45599
4.74171
5.02261
5.29846
5.56899
5.83403
6.09342
6.34701
6.59468
6.83637
7.07199
7.30151
7.52492
7.7422
7.95339
8.1585
8.3576
8.55073
8.73797
8.91943
9.09519
9.26536
9.43004
9.58938
9.74351
9.89257
10.0367
10.176
10.3106
10.4405
10.5658
10.6859
10.8022
10.9072
11.0236
11.061
-7.0299
-7.03263
-7.03736
-7.04246
-7.04699
-7.051
-7.05472
-7.05832
-7.06195
-7.0657
-7.06965
-7.07386
-7.07838
-7.08323
-7.08844
-7.09403
-7.10003
-7.10643
-7.11326
-7.12053
-7.12825
-7.13643
-7.14508
-7.1542
-7.16382
-7.17394
-7.18457
-7.19571
-7.20739
-7.2196
-7.23236
-7.24568
-7.25956
-7.27401
-7.28903
-7.30464
-7.32083
-7.3376
-7.35497
-7.37292
-7.39145
-7.41056
-7.43024
-7.45049
-7.47127
-7.49259
-7.51442
-7.53674
-7.55953
-7.58274
-7.60636
-7.63033
-7.65462
-7.67919
-7.70397
-7.72891
-7.75395
-7.77903
-7.80407
-7.829
-7.85372
-7.87817
-7.90223
-7.92583
-7.94885
-7.9712
-7.99275
-8.01339
-8.033
-8.05145
-8.06861
-8.08435
-8.09851
-8.11095
-8.12151
-8.13004
-8.13635
-8.14029
-8.14165
-8.14024
-8.13586
-8.12829
-8.11728
-8.10261
-8.08402
-8.06124
-8.034
-8.00198
-7.96489
-7.92241
-7.87421
-7.81996
-7.75934
-7.69208
-7.61793
-7.5365
-7.4466
-7.34808
-7.24172
-7.12749
-7.00525
-6.87486
-6.73621
-6.58922
-6.4339
-6.27024
-6.09823
-5.91789
-5.72928
-5.53244
-5.32748
-5.1145
-4.89364
-4.66507
-4.42896
-4.18557
-3.93509
-3.67761
-3.41347
-3.14311
-2.86683
-2.58495
-2.29786
-2.00594
-1.70961
-1.40933
-1.10537
-0.798116
-0.488228
-0.176157
0.137626
0.452634
0.768396
1.08453
1.40055
1.71587
2.03005
2.34262
2.65322
2.96144
3.26678
3.56886
3.86732
4.16187
4.45214
4.7378
5.01863
5.29437
5.56478
5.82968
6.08892
6.34234
6.58983
6.83131
7.06671
7.296
7.51917
7.7362
7.94712
8.15197
8.35078
8.54364
8.73061
8.91178
9.08726
9.25715
9.42157
9.58064
9.7345
9.88328
10.0271
10.166
10.3002
10.4295
10.5541
10.6731
10.788
10.8912
11.0056
11.0389
-7.03971
-7.04208
-7.04629
-7.05095
-7.05518
-7.05898
-7.06252
-7.06598
-7.06946
-7.07306
-7.07686
-7.08092
-7.08528
-7.08997
-7.09503
-7.10046
-7.10631
-7.11257
-7.11926
-7.12641
-7.13401
-7.14208
-7.15064
-7.15969
-7.16924
-7.1793
-7.18989
-7.20101
-7.21268
-7.22489
-7.23767
-7.25102
-7.26494
-7.27945
-7.29454
-7.31023
-7.32651
-7.3434
-7.36088
-7.37896
-7.39762
-7.41688
-7.43671
-7.45711
-7.47806
-7.49955
-7.52155
-7.54404
-7.56699
-7.59037
-7.61415
-7.63828
-7.66273
-7.68744
-7.71235
-7.73742
-7.76259
-7.78777
-7.8129
-7.8379
-7.86269
-7.88718
-7.91128
-7.93489
-7.95791
-7.98024
-8.00176
-8.02236
-8.04192
-8.06031
-8.07741
-8.09307
-8.10716
-8.11952
-8.13002
-8.13848
-8.14474
-8.14863
-8.14997
-8.14856
-8.14419
-8.13664
-8.12567
-8.11106
-8.09255
-8.06987
-8.04273
-8.01083
-7.97385
-7.93146
-7.88332
-7.82911
-7.76851
-7.7013
-7.62707
-7.54457
-7.45342
-7.35442
-7.24775
-7.13323
-7.0107
-6.88008
-6.74123
-6.59403
-6.43848
-6.27461
-6.1024
-5.92188
-5.73308
-5.53607
-5.33093
-5.11779
-4.89676
-4.66802
-4.43175
-4.18817
-3.93751
-3.67993
-3.4157
-3.1452
-2.86877
-2.58674
-2.2995
-2.00742
-1.71091
-1.41041
-1.10629
-0.798948
-0.48895
-0.176764
0.137135
0.452263
0.768148
1.08436
1.40041
1.71577
2.02998
2.34258
2.65318
2.96135
3.26663
3.56864
3.86703
4.16145
4.45158
4.73709
5.01774
5.29328
5.56348
5.82814
6.08712
6.34028
6.58748
6.82867
7.06376
7.29273
7.51557
7.73226
7.94284
8.14733
8.3458
8.53831
8.72494
8.90577
9.08093
9.25049
9.4146
9.57336
9.72691
9.87536
10.0188
10.1574
10.291
10.4197
10.5435
10.6615
10.775
10.8766
10.989
11.0191
-7.04992
-7.05195
-7.05563
-7.05977
-7.06359
-7.06704
-7.07029
-7.07346
-7.07667
-7.08001
-7.08356
-7.08736
-7.09148
-7.09593
-7.10076
-7.10599
-7.11163
-7.11771
-7.12424
-7.13124
-7.13872
-7.14668
-7.15515
-7.16412
-7.17362
-7.18365
-7.19423
-7.20535
-7.21703
-7.22928
-7.2421
-7.25551
-7.26951
-7.28411
-7.2993
-7.3151
-7.33151
-7.34852
-7.36614
-7.38437
-7.40318
-7.42259
-7.44257
-7.46312
-7.48422
-7.50585
-7.52799
-7.55062
-7.57369
-7.59719
-7.62107
-7.6453
-7.66982
-7.69459
-7.71955
-7.74465
-7.76981
-7.79499
-7.82009
-7.84504
-7.86975
-7.89413
-7.91811
-7.94158
-7.96445
-7.98661
-8.00795
-8.02835
-8.04769
-8.06587
-8.08273
-8.09816
-8.11202
-8.12415
-8.13443
-8.14267
-8.14874
-8.15245
-8.15362
-8.15208
-8.14761
-8.14
-8.12899
-8.11434
-8.09582
-8.07315
-8.04603
-8.01415
-7.9772
-7.93482
-7.88669
-7.83249
-7.77189
-7.70457
-7.62918
-7.54517
-7.45345
-7.3542
-7.24727
-7.13249
-7.00972
-6.87886
-6.73982
-6.59248
-6.4368
-6.27279
-6.10044
-5.91978
-5.73085
-5.53372
-5.32847
-5.11521
-4.89408
-4.66523
-4.42885
-4.18515
-3.93435
-3.67667
-3.41237
-3.14181
-2.8653
-2.5832
-2.29589
-2.00373
-1.70715
-1.40656
-1.10237
-0.795005
-0.484983
-0.172775
0.14114
0.456281
0.772173
1.08836
1.40435
1.71965
2.03379
2.34631
2.65679
2.96481
3.26993
3.57177
3.86996
4.16416
4.45404
4.7393
5.01966
5.2949
5.56478
5.82911
6.08774
6.34052
6.58735
6.82815
7.06284
7.29141
7.51383
7.73011
7.94027
8.14435
8.34241
8.53452
8.72075
8.9012
9.07598
9.24519
9.40894
9.56737
9.72057
9.86867
10.0117
10.1499
10.283
10.4111
10.5341
10.651
10.7633
10.8632
10.9737
11.0016
-7.06033
-7.06205
-7.06519
-7.06877
-7.07208
-7.07505
-7.07784
-7.08058
-7.08338
-7.08632
-7.08948
-7.09292
-7.09669
-7.10083
-7.10537
-7.11033
-7.11574
-7.12161
-7.12796
-7.1348
-7.14215
-7.15001
-7.1584
-7.16732
-7.17679
-7.1868
-7.19738
-7.20853
-7.22025
-7.23256
-7.24545
-7.25895
-7.27304
-7.28774
-7.30305
-7.31897
-7.3355
-7.35264
-7.37038
-7.38873
-7.40766
-7.42718
-7.44726
-7.4679
-7.48908
-7.51078
-7.53296
-7.55562
-7.57871
-7.6022
-7.62605
-7.65022
-7.67466
-7.69933
-7.72416
-7.74911
-7.7741
-7.79907
-7.82396
-7.84868
-7.87313
-7.89722
-7.92089
-7.94403
-7.96656
-7.98836
-8.00932
-8.02934
-8.0483
-8.06607
-8.08255
-8.09758
-8.11105
-8.12281
-8.13271
-8.14061
-8.14635
-8.14975
-8.15065
-8.14885
-8.14416
-8.13637
-8.12523
-8.11048
-8.09188
-8.06915
-8.04198
-8.01006
-7.97309
-7.93069
-7.88261
-7.82845
-7.76759
-7.69872
-7.62161
-7.53712
-7.44525
-7.34585
-7.23875
-7.12381
-7.00089
-6.86988
-6.7307
-6.58326
-6.42751
-6.26344
-6.09104
-5.91035
-5.72139
-5.52424
-5.31898
-5.10571
-4.88458
-4.65574
-4.41937
-4.17567
-3.92488
-3.66721
-3.40296
-3.13244
-2.85598
-2.57394
-2.28667
-1.99457
-1.69805
-1.39751
-1.09339
-0.786128
-0.476209
-0.164109
0.14969
0.464708
0.780466
1.09649
1.41231
1.72741
2.04134
2.35365
2.66389
2.97164
3.27648
3.57802
3.87589
4.16975
4.45927
4.74415
5.02413
5.29895
5.5684
5.8323
6.09048
6.3428
6.58916
6.82948
7.0637
7.29178
7.51372
7.72951
7.93919
8.14281
8.3404
8.53206
8.71786
8.89789
9.07226
9.24109
9.40447
9.56254
9.71539
9.86312
10.0058
10.1435
10.2761
10.4036
10.5258
10.6417
10.7527
10.8513
10.9598
10.9864
-7.0709
-7.07235
-7.07499
-7.07796
-7.08061
-7.08294
-7.08509
-7.0872
-7.08939
-7.09176
-7.09439
-7.09734
-7.10067
-7.10441
-7.10859
-7.11324
-7.11838
-7.12402
-7.13018
-7.13686
-7.14409
-7.15186
-7.16018
-7.16906
-7.17851
-7.18853
-7.19913
-7.21031
-7.22208
-7.23445
-7.24742
-7.26099
-7.27516
-7.28994
-7.30533
-7.32133
-7.33792
-7.35512
-7.37291
-7.39129
-7.41024
-7.42975
-7.4498
-7.47039
-7.49149
-7.51308
-7.53513
-7.55763
-7.58053
-7.6038
-7.6274
-7.65129
-7.67543
-7.69976
-7.72423
-7.74878
-7.77336
-7.79789
-7.8223
-7.84653
-7.87049
-7.89407
-7.91722
-7.93982
-7.96179
-7.98302
-8.00342
-8.02287
-8.04126
-8.05847
-8.07438
-8.08887
-8.10181
-8.11305
-8.12247
-8.1299
-8.1352
-8.1382
-8.13873
-8.1366
-8.13162
-8.12356
-8.11219
-8.09728
-8.07853
-8.05569
-8.02842
-7.99642
-7.95948
-7.91709
-7.86903
-7.81421
-7.75135
-7.68098
-7.6036
-7.51907
-7.42717
-7.32773
-7.22059
-7.10562
-6.98269
-6.85169
-6.71253
-6.56513
-6.40945
-6.24545
-6.07316
-5.89257
-5.70373
-5.50671