/*--------------------------------*- C++ -*----------------------------------*\
| =========                 |                                                 |
| \\      /  F ield         | OpenFOAM: The Open Source CFD Toolbox           |
|  \\    /   O peration     | Version:  2.2.x                                 |
|   \\  /    A nd           | Web:      www.OpenFOAM.org                      |
|    \\/     M anipulation  |                                                 |
\*---------------------------------------------------------------------------*/
FoamFile
{
    version     2.0;
    format      ascii;
    class       surfaceScalarField;
    location    "760";
    object      phi;
}
// * * * * * * * * * * * * * * * * * * * * * * * * * * * * * * * * * * * * * //

dimensions      [0 3 -1 0 0 0 0];

internalField   nonuniform List<scalar> 
24170
(
3.08816e-06
4.57363e-08
3.0142e-06
7.39614e-08
2.95204e-06
6.21565e-08
2.88974e-06
6.22941e-08
2.83017e-06
5.95798e-08
2.77472e-06
5.54473e-08
2.72344e-06
5.12811e-08
2.67605e-06
4.73889e-08
2.63225e-06
4.37988e-08
2.59175e-06
4.05006e-08
2.55427e-06
3.74756e-08
2.51957e-06
3.47007e-08
2.48742e-06
3.21543e-08
2.45759e-06
2.98246e-08
2.42985e-06
2.77406e-08
2.40365e-06
2.61992e-08
2.37677e-06
2.6884e-08
3.0439e-08
2.34633e-06
3.46858e-06
3.36004e-08
3.45792e-06
8.46226e-08
3.44339e-06
7.66831e-08
3.42857e-06
7.71155e-08
3.41238e-06
7.57723e-08
3.39524e-06
7.2591e-08
3.37746e-06
6.90535e-08
3.3593e-06
6.55483e-08
3.34098e-06
6.21197e-08
3.3227e-06
5.87858e-08
3.30461e-06
5.55633e-08
3.28685e-06
5.24626e-08
3.26951e-06
4.94916e-08
3.25267e-06
4.66687e-08
3.23635e-06
4.40588e-08
3.22066e-06
4.18906e-08
3.20706e-06
4.04791e-08
3.80229e-08
3.19948e-06
3.80922e-06
3.65726e-08
3.81785e-06
7.59937e-08
3.82008e-06
7.44518e-08
3.82215e-06
7.50472e-08
3.82294e-06
7.49789e-08
3.82241e-06
7.31226e-08
3.82089e-06
7.05779e-08
3.81861e-06
6.78256e-08
3.81576e-06
6.49747e-08
3.81246e-06
6.20779e-08
3.80885e-06
5.91788e-08
3.805e-06
5.63082e-08
3.80101e-06
5.34886e-08
3.79693e-06
5.07455e-08
3.79286e-06
4.81251e-08
3.78905e-06
4.57033e-08
3.78616e-06
4.33691e-08
3.9598e-08
3.78459e-06
4.20601e-06
3.51171e-08
4.21523e-06
6.67824e-08
4.21956e-06
7.01164e-08
4.2232e-06
7.14132e-08
4.22618e-06
7.19983e-08
4.22844e-06
7.08619e-08
4.2302e-06
6.8816e-08
4.23161e-06
6.64126e-08
4.23276e-06
6.38297e-08
4.23369e-06
6.1145e-08
4.23446e-06
5.84134e-08
4.23509e-06
5.56718e-08
4.23564e-06
5.29438e-08
4.23614e-06
5.02462e-08
4.23667e-06
4.75902e-08
4.23743e-06
4.49487e-08
4.23871e-06
4.20863e-08
3.80258e-08
4.24028e-06
4.64072e-06
3.17069e-08
4.64865e-06
5.88463e-08
4.6536e-06
6.51658e-08
4.65777e-06
6.72483e-08
4.66158e-06
6.81872e-08
4.66493e-06
6.7507e-08
4.66792e-06
6.58277e-08
4.67064e-06
6.36945e-08
4.67315e-06
6.1324e-08
4.67548e-06
5.88106e-08
4.67768e-06
5.62158e-08
4.67977e-06
5.35792e-08
4.68179e-06
5.09234e-08
4.68378e-06
4.82565e-08
4.68581e-06
4.55666e-08
4.68797e-06
4.2789e-08
4.69033e-06
3.97218e-08
3.58949e-08
4.69246e-06
5.11834e-06
2.79576e-08
5.12554e-06
5.16472e-08
5.13106e-06
5.9654e-08
5.13577e-06
6.25289e-08
5.14015e-06
6.38111e-08
5.14412e-06
6.35392e-08
5.14773e-06
6.22169e-08
5.15107e-06
6.03525e-08
5.15421e-06
5.81886e-08
5.15718e-06
5.58382e-08
5.16002e-06
5.33712e-08
5.16277e-06
5.08317e-08
5.16545e-06
4.82427e-08
5.1681e-06
4.56079e-08
5.17076e-06
4.29069e-08
5.17348e-06
4.00743e-08
5.17623e-06
3.6971e-08
3.33894e-08
5.17873e-06
5.64454e-06
2.4424e-08
5.65122e-06
4.49656e-08
5.65708e-06
5.37923e-08
5.66224e-06
5.73719e-08
5.66705e-06
5.90019e-08
5.67149e-06
5.91036e-08
5.67558e-06
5.81241e-08
5.6794e-06
5.65276e-08
5.68302e-06
5.45724e-08
5.68647e-06
5.23887e-08
5.68979e-06
5.0055e-08
5.693e-06
4.76201e-08
5.69613e-06
4.51095e-08
5.69921e-06
4.25277e-08
5.70226e-06
3.9857e-08
5.70529e-06
3.70503e-08
5.70823e-06
3.40313e-08
3.07377e-08
5.71088e-06
4.40852e-06
2.20133e-08
4.41294e-06
4.05488e-08
4.41725e-06
4.94844e-08
4.42116e-06
5.34632e-08
4.42483e-06
5.53325e-08
4.42826e-06
5.56668e-08
4.43147e-06
5.49137e-08
4.43449e-06
5.35073e-08
4.43736e-06
5.17059e-08
4.4401e-06
4.9648e-08
4.44274e-06
4.74182e-08
4.44529e-06
4.50688e-08
4.44777e-06
4.26278e-08
4.45019e-06
4.01028e-08
4.45257e-06
3.74825e-08
4.45488e-06
3.47359e-08
4.45709e-06
3.18206e-08
2.87356e-08
4.4591e-06
5.14231e-06
1.95566e-08
5.14681e-06
3.6053e-08
5.15144e-06
4.48586e-08
5.15579e-06
4.9111e-08
5.15994e-06
5.11788e-08
5.16388e-06
5.17278e-08
5.1676e-06
5.11972e-08
5.17112e-06
4.99876e-08
5.17447e-06
4.83522e-08
5.17768e-06
4.64354e-08
5.18078e-06
4.4326e-08
5.18376e-06
4.20802e-08
5.18666e-06
3.97295e-08
5.18948e-06
3.72865e-08
5.19221e-06
3.47487e-08
5.19485e-06
3.21023e-08
5.19733e-06
2.93331e-08
2.64765e-08
5.19959e-06
5.99826e-06
1.70858e-08
6.00277e-06
3.15418e-08
6.00766e-06
3.99746e-08
6.01242e-06
4.43474e-08
6.01705e-06
4.65477e-08
6.02151e-06
4.72746e-08
6.02575e-06
4.6949e-08
6.02981e-06
4.59332e-08
6.03369e-06
4.44706e-08
6.03742e-06
4.27072e-08
6.04101e-06
4.0735e-08
6.04448e-06
3.86131e-08
6.04783e-06
3.63774e-08
6.05107e-06
3.40467e-08
6.05419e-06
3.16283e-08
6.05717e-06
2.91241e-08
6.05996e-06
2.65406e-08
2.39293e-08
6.06251e-06
6.99672e-06
1.46316e-08
7.00119e-06
2.70747e-08
7.00627e-06
3.48888e-08
7.01141e-06
3.92099e-08
7.0165e-06
4.14594e-08
7.02146e-06
4.23103e-08
7.02625e-06
4.21578e-08
7.03086e-06
4.13229e-08
7.0353e-06
4.00329e-08
7.03958e-06
3.84317e-08
7.0437e-06
3.66122e-08
7.04768e-06
3.46358e-08
7.05151e-06
3.25424e-08
7.0552e-06
3.03574e-08
7.05873e-06
2.80973e-08
7.06208e-06
2.57762e-08
7.06521e-06
2.34136e-08
2.10643e-08
7.06807e-06
8.16143e-06
1.22211e-08
8.16581e-06
2.26883e-08
8.17104e-06
2.96588e-08
8.17651e-06
3.37405e-08
8.18203e-06
3.59374e-08
8.1875e-06
3.68442e-08
8.19284e-06
3.68204e-08
8.19801e-06
3.61445e-08
8.20303e-06
3.50215e-08
8.20787e-06
3.35882e-08
8.21255e-06
3.19361e-08
8.21705e-06
3.01276e-08
8.22139e-06
2.82057e-08
8.22555e-06
2.62011e-08
8.22951e-06
2.41373e-08
8.23325e-06
2.20365e-08
8.23674e-06
1.99244e-08
1.78516e-08
8.23995e-06
9.52008e-06
9.87107e-09
9.52437e-06
1.83964e-08
9.52969e-06
2.43331e-08
9.53545e-06
2.7981e-08
9.54139e-06
3.00046e-08
9.54735e-06
3.08856e-08
9.55323e-06
3.09349e-08
9.55899e-06
3.03875e-08
9.56459e-06
2.94207e-08
9.57002e-06
2.81591e-08
9.57527e-06
2.66892e-08
9.58032e-06
2.50719e-08
9.58518e-06
2.33516e-08
9.58981e-06
2.1562e-08
9.59422e-06
1.97306e-08
9.59837e-06
1.78829e-08
9.60225e-06
1.60455e-08
1.42624e-08
9.60584e-06
1.1105e-05
7.58436e-09
1.11092e-05
1.41898e-08
1.11146e-05
1.89382e-08
1.11206e-05
2.19636e-08
1.11269e-05
2.36785e-08
1.11334e-05
2.4439e-08
1.11398e-05
2.44958e-08
1.11462e-05
2.40381e-08
1.11524e-05
2.32113e-08
1.11584e-05
2.21224e-08
1.11643e-05
2.08484e-08
1.11699e-05
1.94457e-08
1.11753e-05
1.79568e-08
1.11804e-05
1.64153e-08
1.11853e-05
1.4849e-08
1.11899e-05
1.3283e-08
1.11942e-05
1.17414e-08
1.02603e-08
1.11982e-05
1.29539e-05
5.34501e-09
1.2958e-05
1.00322e-08
1.29635e-05
1.34651e-08
1.29698e-05
1.56946e-08
1.29765e-05
1.69589e-08
1.29834e-05
1.74951e-08
1.29904e-05
1.74859e-08
1.29974e-05
1.70721e-08
1.30043e-05
1.63638e-08
1.30109e-05
1.5445e-08
1.30174e-05
1.43784e-08
1.30236e-05
1.32118e-08
1.30296e-05
1.19819e-08
1.30353e-05
1.07185e-08
1.30407e-05
9.44622e-09
1.30458e-05
8.18674e-09
1.30506e-05
6.95994e-09
5.79384e-09
1.30551e-05
1.51107e-05
3.11307e-09
1.51149e-05
5.85006e-09
1.51205e-05
7.85091e-09
1.5127e-05
9.1279e-09
1.51342e-05
9.80202e-09
1.51417e-05
1.00078e-08
1.51493e-05
9.85713e-09
1.5157e-05
9.43909e-09
1.51645e-05
8.82516e-09
1.51719e-05
8.07158e-09
1.5179e-05
7.22198e-09
1.51859e-05
6.3105e-09
1.51925e-05
5.36434e-09
1.51989e-05
4.40575e-09
1.52048e-05
3.45332e-09
1.52105e-05
2.52294e-09
1.52158e-05
1.6289e-09
7.91921e-10
1.52208e-05
1.76267e-05
8.1632e-10
1.76311e-05
1.50997e-09
1.7637e-05
1.94618e-09
1.7644e-05
2.1215e-09
1.76517e-05
2.07493e-09
1.76599e-05
1.85156e-09
1.76682e-05
1.49086e-09
1.76767e-05
1.02661e-09
1.7685e-05
4.87578e-10
1.76932e-05
-1.02343e-10
1.77011e-05
-7.23554e-10
1.77088e-05
-1.35984e-09
1.77161e-05
-1.99757e-09
1.77232e-05
-2.62511e-09
1.77299e-05
-3.23248e-09
1.77362e-05
-3.81109e-09
1.77422e-05
-4.35309e-09
-4.84467e-09
1.77478e-05
1.78284e-05
-1.36101e-09
1.78325e-05
-2.62452e-09
1.78382e-05
-3.71501e-09
1.78449e-05
-4.63482e-09
1.78524e-05
-5.40797e-09
1.78603e-05
-6.07045e-09
1.78685e-05
-6.65222e-09
1.78767e-05
-7.173e-09
1.78848e-05
-7.64594e-09
1.78928e-05
-8.07986e-09
1.79005e-05
-8.48006e-09
1.7908e-05
-8.84925e-09
1.79152e-05
-9.18824e-09
1.79221e-05
-9.49668e-09
1.79286e-05
-9.77351e-09
1.79348e-05
-1.00173e-08
1.79407e-05
-1.0226e-08
-1.03919e-08
1.79463e-05
1.58833e-05
-3.30985e-09
1.5887e-05
-6.33423e-09
1.58921e-05
-8.79794e-09
1.58981e-05
-1.06821e-08
1.59048e-05
-1.20765e-08
1.59118e-05
-1.31038e-08
1.5919e-05
-1.38596e-08
1.59263e-05
-1.44112e-08
1.59334e-05
-1.48092e-08
1.59404e-05
-1.5092e-08
1.59473e-05
-1.52872e-08
1.59538e-05
-1.54142e-08
1.59601e-05
-1.54866e-08
1.59661e-05
-1.55138e-08
1.59719e-05
-1.55025e-08
1.59773e-05
-1.54571e-08
1.59825e-05
-1.53805e-08
-1.52691e-08
1.59873e-05
1.41505e-05
-5.13552e-09
1.4154e-05
-9.84028e-09
1.41588e-05
-1.35937e-08
1.41644e-05
-1.63239e-08
1.41706e-05
-1.82244e-08
1.4177e-05
-1.95294e-08
1.41835e-05
-2.03977e-08
1.41901e-05
-2.09385e-08
1.41965e-05
-2.12375e-08
1.42028e-05
-2.136e-08
1.42088e-05
-2.13528e-08
1.42147e-05
-2.12492e-08
1.42203e-05
-2.10732e-08
1.42256e-05
-2.08425e-08
1.42306e-05
-2.05699e-08
1.42355e-05
-2.02649e-08
1.424e-05
-1.99337e-08
-1.95768e-08
1.42443e-05
1.26068e-05
-6.87652e-09
1.26102e-05
-1.32851e-08
1.26149e-05
-1.82947e-08
1.26203e-05
-2.17411e-08
1.26261e-05
-2.40212e-08
1.26321e-05
-2.55131e-08
1.26381e-05
-2.64269e-08
1.26441e-05
-2.69089e-08
1.26499e-05
-2.70792e-08
1.26556e-05
-2.70271e-08
1.26611e-05
-2.68146e-08
1.26663e-05
-2.6486e-08
1.26713e-05
-2.60737e-08
1.26761e-05
-2.56019e-08
1.26806e-05
-2.50886e-08
1.26849e-05
-2.45478e-08
1.26889e-05
-2.39895e-08
-2.34178e-08
1.26928e-05
1.12314e-05
-8.50247e-09
1.12349e-05
-1.67799e-08
1.12397e-05
-2.30361e-08
1.12449e-05
-2.70238e-08
1.12505e-05
-2.95468e-08
1.12561e-05
-3.11377e-08
1.12617e-05
-3.2028e-08
1.12672e-05
-3.24002e-08
1.12725e-05
-3.24104e-08
1.12777e-05
-3.21676e-08
1.12826e-05
-3.17448e-08
1.12873e-05
-3.11941e-08
1.12918e-05
-3.05537e-08
1.1296e-05
-2.98521e-08
1.13e-05
-2.9111e-08
1.13038e-05
-2.83472e-08
1.13074e-05
-2.75733e-08
-2.67963e-08
1.13108e-05
1.0006e-05
-9.90095e-09
1.00097e-05
-2.04456e-08
1.00146e-05
-2.79211e-08
1.00197e-05
-3.22013e-08
1.0025e-05
-3.48296e-08
1.00303e-05
-3.6437e-08
1.00355e-05
-3.72345e-08
1.00406e-05
-3.74488e-08
1.00454e-05
-3.72713e-08
1.00501e-05
-3.68242e-08
1.00545e-05
-3.6187e-08
1.00588e-05
-3.54169e-08
1.00628e-05
-3.45557e-08
1.00665e-05
-3.3635e-08
1.00701e-05
-3.26792e-08
1.00735e-05
-3.17086e-08
1.00766e-05
-3.07417e-08
-2.97942e-08
1.00796e-05
8.91406e-06
-1.08657e-08
8.91803e-06
-2.4413e-08
8.92307e-06
-3.29619e-08
8.92809e-06
-3.72218e-08
8.93311e-06
-3.98446e-08
8.93805e-06
-4.13852e-08
8.94284e-06
-4.20159e-08
8.94742e-06
-4.20297e-08
8.95179e-06
-4.16465e-08
8.95596e-06
-4.09912e-08
8.95992e-06
-4.01443e-08
8.96366e-06
-3.91647e-08
8.9672e-06
-3.80956e-08
8.97054e-06
-3.69689e-08
8.97367e-06
-3.58086e-08
8.97659e-06
-3.46349e-08
8.97932e-06
-3.34663e-08
-3.23187e-08
8.98184e-06
7.94096e-06
-1.1162e-08
7.94547e-06
-2.89229e-08
7.95052e-06
-3.8012e-08
7.95525e-06
-4.19455e-08
7.95995e-06
-4.45464e-08
7.96452e-06
-4.59578e-08
7.96886e-06
-4.63555e-08
7.97296e-06
-4.61318e-08
7.97684e-06
-4.55257e-08
7.98051e-06
-4.46567e-08
7.98397e-06
-4.36033e-08
7.98723e-06
-4.24237e-08
7.99029e-06
-4.11603e-08
7.99317e-06
-3.98431e-08
7.99585e-06
-3.84951e-08
7.99835e-06
-3.71368e-08
8.00068e-06
-3.57954e-08
-3.45154e-08
8.00288e-06
7.07291e-06
-9.74287e-09
7.07859e-06
-3.45974e-08
7.08339e-06
-4.28135e-08
7.08759e-06
-4.61478e-08
7.09183e-06
-4.87893e-08
7.09592e-06
-5.00442e-08
7.09976e-06
-5.01961e-08
7.10337e-06
-4.97414e-08
7.10676e-06
-4.89185e-08
7.10994e-06
-4.78391e-08
7.11292e-06
-4.65819e-08
7.11571e-06
-4.52062e-08
7.1183e-06
-4.37536e-08
7.12071e-06
-4.22516e-08
7.12293e-06
-4.0718e-08
7.12496e-06
-3.9163e-08
7.12676e-06
-3.75961e-08
-3.60236e-08
7.12827e-06
6.29709e-06
-4.31728e-09
6.30527e-06
-4.27786e-08
6.3101e-06
-4.76474e-08
6.31412e-06
-5.01634e-08
6.31793e-06
-5.26061e-08
6.3213e-06
-5.34114e-08
6.32429e-06
-5.31801e-08
6.32699e-06
-5.2448e-08
6.32947e-06
-5.13956e-08
6.33174e-06
-5.01085e-08
6.33381e-06
-4.8658e-08
6.33571e-06
-4.71006e-08
6.33743e-06
-4.54756e-08
6.33899e-06
-4.38085e-08
6.34038e-06
-4.21123e-08
6.34161e-06
-4.03887e-08
6.34265e-06
-3.86411e-08
-3.68782e-08
6.34351e-06
5.60106e-06
9.52058e-09
5.61058e-06
-5.23003e-08
5.61458e-06
-5.16477e-08
5.6189e-06
-5.44802e-08
5.62275e-06
-5.64532e-08
5.62559e-06
-5.62498e-08
5.62758e-06
-5.51715e-08
5.62891e-06
-5.3782e-08
5.62971e-06
-5.21972e-08
5.63008e-06
-5.04702e-08
5.63007e-06
-4.8653e-08
5.62976e-06
-4.67871e-08
5.62918e-06
-4.49014e-08
5.62839e-06
-4.30132e-08
5.6274e-06
-4.11266e-08
5.62624e-06
-3.92225e-08
5.62484e-06
-3.72433e-08
-3.49296e-08
5.62289e-06
5.00884e-06
2.98403e-09
5.00511e-06
-4.85649e-08
4.99663e-06
-4.31693e-08
4.98995e-06
-4.77955e-08
4.9831e-06
-4.961e-08
4.97571e-06
-4.88553e-08
4.96772e-06
-4.71856e-08
4.95914e-06
-4.52008e-08
4.95002e-06
-4.3075e-08
4.94045e-06
-4.08977e-08
4.93052e-06
-3.87306e-08
4.92035e-06
-3.6613e-08
4.91002e-06
-3.45673e-08
4.89961e-06
-3.2604e-08
4.8892e-06
-3.07221e-08
4.87888e-06
-2.8901e-08
4.86871e-06
-2.70736e-08
-2.48054e-08
4.85859e-06
4.45953e-06
4.41097e-06
4.3678e-06
4.32e-06
4.27039e-06
4.22154e-06
4.17435e-06
4.12915e-06
4.08608e-06
4.04518e-06
4.00645e-06
3.96984e-06
3.93527e-06
3.90266e-06
3.87194e-06
3.84304e-06
3.81597e-06
3.79116e-06
1.18453e-08
-1.18453e-08
2.34488e-08
-1.16013e-08
3.03133e-08
-6.86327e-09
3.13312e-08
-1.01672e-09
2.66457e-08
4.68622e-09
1.69756e-08
9.67101e-09
3.21808e-09
1.37578e-08
-1.37966e-08
1.70154e-08
-3.32815e-08
1.94853e-08
-5.47224e-08
2.14412e-08
-7.78338e-08
2.31119e-08
-1.02433e-07
2.45997e-08
-1.2837e-07
2.5938e-08
-1.55506e-07
2.71358e-08
-1.83701e-07
2.81961e-08
-2.12824e-07
2.91232e-08
-2.42748e-07
2.99244e-08
-2.73357e-07
3.06092e-08
-3.04545e-07
3.11886e-08
-3.36219e-07
3.16741e-08
-3.68296e-07
3.20774e-08
-4.00706e-07
3.24095e-08
-4.33386e-07
3.2681e-08
-4.66288e-07
3.29015e-08
-4.99367e-07
3.30799e-08
-5.32591e-07
3.3224e-08
-5.65932e-07
3.33406e-08
-5.99367e-07
3.34359e-08
-6.32882e-07
3.35148e-08
-6.66463e-07
3.35816e-08
-7.00103e-07
3.36398e-08
-7.33795e-07
3.36923e-08
-7.67535e-07
3.37413e-08
-8.01323e-07
3.37881e-08
-8.35157e-07
3.38341e-08
-8.69037e-07
3.38799e-08
-9.02963e-07
3.39257e-08
-9.36935e-07
3.39719e-08
-9.70954e-07
3.40185e-08
-1.00502e-06
3.4066e-08
-1.03914e-06
3.41146e-08
-1.0733e-06
3.41656e-08
-1.10753e-06
3.42252e-08
-1.14184e-06
3.431e-08
-1.17626e-06
3.4426e-08
-1.21082e-06
3.45601e-08
-1.24553e-06
3.47037e-08
-1.28038e-06
3.48512e-08
-1.31538e-06
3.49986e-08
-1.35052e-06
3.51428e-08
-1.3858e-06
3.52811e-08
-1.42121e-06
3.54114e-08
-1.45674e-06
3.55317e-08
-1.49238e-06
3.564e-08
-1.52812e-06
3.57348e-08
-1.56393e-06
3.58143e-08
-1.59981e-06
3.5877e-08
-1.63573e-06
3.59213e-08
-1.67168e-06
3.59459e-08
-1.70763e-06
3.59494e-08
-1.74356e-06
3.59302e-08
-1.77944e-06
3.58873e-08
-1.81526e-06
3.58191e-08
-1.85099e-06
3.57246e-08
-1.88659e-06
3.56026e-08
-1.92204e-06
3.54516e-08
-1.95731e-06
3.52705e-08
-1.99237e-06
3.5058e-08
-2.02718e-06
3.48128e-08
-2.06172e-06
3.45337e-08
-2.09594e-06
3.42194e-08
-2.1298e-06
3.38685e-08
-2.16328e-06
3.34796e-08
-2.19634e-06
3.30512e-08
-2.22892e-06
3.25819e-08
-2.26099e-06
3.20699e-08
-2.2925e-06
3.15136e-08
-2.32341e-06
3.09113e-08
-2.35368e-06
3.02612e-08
-2.38324e-06
2.95613e-08
-2.41205e-06
2.88098e-08
-2.44005e-06
2.80047e-08
-2.4672e-06
2.71441e-08
-2.49342e-06
2.6226e-08
-2.51867e-06
2.52488e-08
-2.54288e-06
2.42108e-08
-2.56599e-06
2.31105e-08
-2.58794e-06
2.19468e-08
-2.60866e-06
2.07187e-08
-2.62808e-06
1.9426e-08
-2.64615e-06
1.80687e-08
-2.6628e-06
1.66473e-08
-2.67796e-06
1.5163e-08
-2.69158e-06
1.36174e-08
-2.70359e-06
1.20128e-08
-2.71394e-06
1.03518e-08
-2.72258e-06
8.63789e-09
-2.72946e-06
6.87445e-09
-2.73452e-06
5.06482e-09
-2.73773e-06
3.21112e-09
-2.73905e-06
1.31487e-09
-2.73843e-06
-6.20327e-10
-2.73585e-06
-2.57256e-09
-2.73133e-06
-4.52624e-09
-2.72484e-06
-6.48645e-09
-2.71639e-06
-8.45323e-09
-2.70596e-06
-1.04256e-08
-2.69356e-06
-1.24021e-08
-2.67918e-06
-1.43808e-08
-2.66282e-06
-1.63601e-08
-2.64448e-06
-1.83377e-08
-2.62417e-06
-2.03113e-08
-2.60189e-06
-2.22786e-08
-2.57765e-06
-2.42369e-08
-2.55147e-06
-2.61834e-08
-2.52336e-06
-2.8115e-08
-2.49333e-06
-3.00283e-08
-2.46141e-06
-3.19199e-08
-2.42762e-06
-3.37862e-08
-2.392e-06
-3.56235e-08
-2.35457e-06
-3.74278e-08
-2.31538e-06
-3.91954e-08
-2.27445e-06
-4.09229e-08
-2.23185e-06
-4.26071e-08
-2.1876e-06
-4.42444e-08
-2.14177e-06
-4.58311e-08
-2.09441e-06
-4.73636e-08
-2.04557e-06
-4.8838e-08
-1.99532e-06
-5.02504e-08
-1.94372e-06
-5.15968e-08
-1.89085e-06
-5.28742e-08
-1.83677e-06
-5.40804e-08
-1.78155e-06
-5.52136e-08
-1.72528e-06
-5.62712e-08
-1.66803e-06
-5.72495e-08
-1.60989e-06
-5.81454e-08
-1.55093e-06
-5.89578e-08
-1.49124e-06
-5.96865e-08
-1.43091e-06
-6.03319e-08
-1.37002e-06
-6.08923e-08
-1.30865e-06
-6.13648e-08
-1.2469e-06
-6.17493e-08
-1.18486e-06
-6.20483e-08
-1.12259e-06
-6.22648e-08
-1.06019e-06
-6.23967e-08
-9.97752e-07
-6.24423e-08
-9.35341e-07
-6.24118e-08
-8.73032e-07
-6.23081e-08
-8.1091e-07
-6.21213e-08
-7.49047e-07
-6.18623e-08
-6.87499e-07
-6.15479e-08
-6.2634e-07
-6.11585e-08
-5.65631e-07
-6.07073e-08
-5.05404e-07
-6.02247e-08
-4.45756e-07
-5.96485e-08
-3.8669e-07
-5.90649e-08
-3.28233e-07
-5.84563e-08
-2.70458e-07
-5.77769e-08
-2.13323e-07
-5.71338e-08
-1.56953e-07
-5.63703e-08
-1.01322e-07
-5.56309e-08
-4.63262e-08
-5.49946e-08
8.04683e-09
-5.4374e-08
6.13801e-08
-5.33332e-08
1.13299e-07
-5.19211e-08
1.64033e-07
-5.07346e-08
2.13752e-07
-4.97186e-08
2.62558e-07
-4.88075e-08
3.10528e-07
-4.79685e-08
3.57716e-07
-4.71865e-08
4.04158e-07
-4.64416e-08
4.49867e-07
-4.5708e-08
4.94813e-07
-4.49452e-08
5.38882e-07
-4.40682e-08
5.81822e-07
-4.29408e-08
6.23002e-07
-4.11804e-08
6.61308e-07
-3.83078e-08
6.93275e-07
-3.19685e-08
7.13937e-07
-2.06621e-08
1.72133e-08
6.96722e-07
4.93451e-09
-1.67784e-08
3.85887e-09
-1.05247e-08
-2.65998e-09
-3.43691e-10
-1.3061e-08
9.38504e-09
-2.63318e-08
1.79576e-08
-4.19939e-08
2.53339e-08
-5.97839e-08
3.15486e-08
-7.94576e-08
3.66898e-08
-1.00882e-07
4.09101e-08
-1.23876e-07
4.44369e-08
-1.48222e-07
4.74583e-08
-1.73716e-07
5.00941e-08
-2.00189e-07
5.24121e-08
-2.27502e-07
5.44497e-08
-2.55536e-07
5.62309e-08
-2.84187e-07
5.77751e-08
-3.13364e-07
5.91014e-08
-3.42983e-07
6.02291e-08
-3.72973e-07
6.11787e-08
-4.03268e-07
6.19705e-08
-4.33815e-07
6.26245e-08
-4.64566e-07
6.316e-08
-4.9548e-07
6.35953e-08
-5.26525e-07
6.3947e-08
-5.57675e-07
6.42305e-08
-5.88911e-07
6.44594e-08
-6.20215e-07
6.46458e-08
-6.5158e-07
6.48003e-08
-6.82997e-07
6.4932e-08
-7.14463e-07
6.50484e-08
-7.45979e-07
6.5156e-08
-7.77546e-07
6.52599e-08
-8.09168e-07
6.53641e-08
-8.40852e-07
6.5472e-08
-8.72603e-07
6.55857e-08
-9.04431e-07
6.57071e-08
-9.36343e-07
6.58372e-08
-9.68348e-07
6.59769e-08
-1.00046e-06
6.61267e-08
-1.03268e-06
6.62871e-08
-1.06502e-06
6.6459e-08
-1.0975e-06
6.6644e-08
-1.13012e-06
6.68459e-08
-1.16288e-06
6.707e-08
-1.19577e-06
6.73152e-08
-1.22879e-06
6.75746e-08
-1.26192e-06
6.78411e-08
-1.29518e-06
6.81088e-08
-1.32855e-06
6.83722e-08
-1.36204e-06
6.86268e-08
-1.39563e-06
6.88682e-08
-1.42931e-06
6.90926e-08
-1.46307e-06
6.92964e-08
-1.49691e-06
6.94761e-08
-1.5308e-06
6.96286e-08
-1.56474e-06
6.97506e-08
-1.5987e-06
6.98392e-08
-1.63267e-06
6.98916e-08
-1.66663e-06
6.99049e-08
-1.70056e-06
6.98765e-08
-1.73443e-06
6.98037e-08
-1.76823e-06
6.96842e-08
-1.80193e-06
6.95153e-08
-1.8355e-06
6.92948e-08
-1.86891e-06
6.902e-08
-1.90215e-06
6.86888e-08
-1.93518e-06
6.82985e-08
-1.96797e-06
6.78469e-08
-2.00048e-06
6.73315e-08
-2.0327e-06
6.67498e-08
-2.06458e-06
6.60994e-08
-2.09609e-06
6.53775e-08
-2.12719e-06
6.45813e-08
-2.15785e-06
6.3708e-08
-2.18802e-06
6.27544e-08
-2.21767e-06
6.17175e-08
-2.24675e-06
6.05938e-08
-2.27522e-06
5.93799e-08
-2.30303e-06
5.8072e-08
-2.33014e-06
5.66663e-08
-2.35649e-06
5.5159e-08
-2.38203e-06
5.3546e-08
-2.40671e-06
5.18234e-08
-2.43047e-06
4.99874e-08
-2.45325e-06
4.80344e-08
-2.475e-06
4.59608e-08
-2.49566e-06
4.37637e-08
-2.51515e-06
4.14408e-08
-2.53342e-06
3.89903e-08
-2.55041e-06
3.64111e-08
-2.56604e-06
3.37035e-08
-2.58026e-06
3.08682e-08
-2.59301e-06
2.79075e-08
-2.60421e-06
2.48247e-08
-2.61383e-06
2.16242e-08
-2.62179e-06
1.83116e-08
-2.62804e-06
1.48931e-08
-2.63254e-06
1.13755e-08
-2.63524e-06
7.76552e-09
-2.6361e-06
4.06722e-09
-2.63506e-06
2.79976e-10
-2.63212e-06
-3.56237e-09
-2.62727e-06
-7.42029e-09
-2.62051e-06
-1.12918e-08
-2.61182e-06
-1.5178e-08
-2.60119e-06
-1.90775e-08
-2.58863e-06
-2.29878e-08
-2.57413e-06
-2.69057e-08
-2.55768e-06
-3.08278e-08
-2.53929e-06
-3.475e-08
-2.51896e-06
-3.86684e-08
-2.49669e-06
-4.25782e-08
-2.4725e-06
-4.64746e-08
-2.44638e-06
-5.03523e-08
-2.41836e-06
-5.42056e-08
-2.38844e-06
-5.80285e-08
-2.35666e-06
-6.18144e-08
-2.32302e-06
-6.55564e-08
-2.28756e-06
-6.9247e-08
-2.25031e-06
-7.28785e-08
-2.21129e-06
-7.64434e-08
-2.17055e-06
-7.99344e-08
-2.12813e-06
-8.33445e-08
-2.08407e-06
-8.66667e-08
-2.03842e-06
-8.98942e-08
-1.99123e-06
-9.30201e-08
-1.94256e-06
-9.60374e-08
-1.89246e-06
-9.89381e-08
-1.841e-06
-1.01714e-07
-1.78824e-06
-1.04357e-07
-1.73425e-06
-1.06862e-07
-1.6791e-06
-1.09224e-07
-1.62288e-06
-1.1144e-07
-1.56565e-06
-1.13504e-07
-1.50748e-06
-1.1541e-07
-1.44848e-06
-1.17152e-07
-1.38871e-06
-1.18726e-07
-1.32827e-06
-1.20131e-07
-1.26722e-06
-1.21371e-07
-1.20567e-06
-1.22443e-07
-1.1437e-06
-1.23339e-07
-1.08139e-06
-1.24058e-07
-1.01883e-06
-1.24608e-07
-9.56097e-07
-1.24996e-07
-8.93279e-07
-1.25216e-07
-8.30459e-07
-1.25262e-07
-7.67712e-07
-1.25157e-07
-7.05111e-07
-1.2491e-07
-6.42733e-07
-1.245e-07
-5.8065e-07
-1.23946e-07
-5.18918e-07
-1.23279e-07
-4.57604e-07
-1.22473e-07
-3.96767e-07
-1.21546e-07
-3.36447e-07
-1.20546e-07
-2.76702e-07
-1.19393e-07
-2.17569e-07
-1.18198e-07
-1.59062e-07
-1.16962e-07
-1.01234e-07
-1.15606e-07
-4.40997e-08
-1.14267e-07
1.24074e-08
-1.12876e-07
6.8043e-08
-1.11268e-07
1.22623e-07
-1.09573e-07
1.76284e-07
-1.08035e-07
2.29054e-07
-1.06102e-07
2.80954e-07
-1.03819e-07
3.31987e-07
-1.01766e-07
3.82165e-07
-9.98958e-08
4.3154e-07
-9.81823e-08
4.80167e-07
-9.65962e-08
5.2809e-07
-9.51106e-08
5.7534e-07
-9.36926e-08
6.21925e-07
-9.22936e-08
6.6781e-07
-9.08309e-08
7.1289e-07
-8.91488e-08
7.56924e-07
-8.69736e-08
7.99446e-07
-8.37025e-08
8.39503e-07
-7.83628e-08
8.75619e-07
-6.80835e-08
9.04336e-07
-4.93781e-08
-6.8168e-09
9.28366e-07
-5.24717e-09
-1.15296e-08
-1.69824e-08
1.21079e-09
-3.12618e-08
1.39357e-08
-4.68147e-08
2.49381e-08
-6.34901e-08
3.46332e-08
-8.13126e-08
4.31563e-08
-1.00327e-07
5.05631e-08
-1.20561e-07
5.69241e-08
-1.42004e-07
6.23531e-08
-1.64565e-07
6.69981e-08
-1.88107e-07
7.10001e-08
-2.12484e-07
7.4471e-08
-2.37563e-07
7.74919e-08
-2.63234e-07
8.01206e-08
-2.89403e-07
8.24e-08
-3.15993e-07
8.43655e-08
-3.4294e-07
8.60484e-08
-3.70189e-07
8.74781e-08
-3.97693e-07
8.86831e-08
-4.25413e-07
8.96908e-08
-4.53316e-07
9.05276e-08
-4.81374e-07
9.12182e-08
-5.09565e-07
9.17858e-08
-5.37869e-07
9.22518e-08
-5.66274e-07
9.26356e-08
-5.94769e-07
9.29547e-08
-6.23348e-07
9.32243e-08
-6.52005e-07
9.34579e-08
-6.8074e-07
9.36672e-08
-7.09553e-07
9.38618e-08
-7.38447e-07
9.40499e-08
-7.67425e-07
9.42383e-08
-7.96493e-07
9.44322e-08
-8.25656e-07
9.46357e-08
-8.54922e-07
9.48518e-08
-8.84298e-07
9.50826e-08
-9.13791e-07
9.53297e-08
-9.43408e-07
9.55937e-08
-9.73156e-07
9.58749e-08
-1.00304e-06
9.61735e-08
-1.03307e-06
9.64892e-08
-1.06325e-06
9.68219e-08
-1.09358e-06
9.71717e-08
-1.12405e-06
9.75381e-08
-1.15465e-06
9.79179e-08
-1.18538e-06
9.83057e-08
-1.21623e-06
9.86952e-08
-1.2472e-06
9.90802e-08
-1.27829e-06
9.94547e-08
-1.30947e-06
9.9813e-08
-1.34076e-06
1.0015e-07
-1.37212e-06
1.0046e-07
-1.40356e-06
1.00738e-07
-1.43507e-06
1.0098e-07
-1.46662e-06
1.01181e-07
-1.49821e-06
1.01337e-07
-1.52981e-06
1.01443e-07
-1.56142e-06
1.01496e-07
-1.593e-06
1.01491e-07
-1.62455e-06
1.01424e-07
-1.65604e-06
1.01292e-07
-1.68745e-06
1.01091e-07
-1.71875e-06
1.00818e-07
-1.74992e-06
1.00469e-07
-1.78094e-06
1.00041e-07
-1.81179e-06
9.95302e-08
-1.84242e-06
9.89331e-08
-1.87282e-06
9.82463e-08
-1.90295e-06
9.74664e-08
-1.93279e-06
9.65897e-08
-1.96231e-06
9.56126e-08
-1.99146e-06
9.45313e-08
-2.02022e-06
9.33416e-08
-2.04855e-06
9.20394e-08
-2.07642e-06
9.062e-08
-2.10378e-06
8.90789e-08
-2.1306e-06
8.74109e-08
-2.15683e-06
8.56108e-08
-2.18243e-06
8.3673e-08
-2.20736e-06
8.15919e-08
-2.23156e-06
7.93614e-08
-2.25499e-06
7.69756e-08
-2.27759e-06
7.44283e-08
-2.29932e-06
7.17138e-08
-2.32011e-06
6.88262e-08
-2.33991e-06
6.57603e-08
-2.35866e-06
6.25113e-08
-2.37629e-06
5.90753e-08
-2.39275e-06
5.54496e-08
-2.40797e-06
5.16322e-08
-2.42189e-06
4.7623e-08
-2.43445e-06
4.3423e-08
-2.44557e-06
3.90353e-08
-2.45521e-06
3.44646e-08
-2.46331e-06
2.97173e-08
-2.4698e-06
2.48015e-08
-2.47463e-06
1.97266e-08
-2.47776e-06
1.45028e-08
-2.47913e-06
9.13985e-09
-2.47871e-06
3.64652e-09
-2.47647e-06
-1.96047e-09
-2.4724e-06
-7.63502e-09
-2.46648e-06
-1.33384e-08
-2.45871e-06
-1.90657e-08
-2.44907e-06
-2.48154e-08
-2.43756e-06
-3.05848e-08
-2.42418e-06
-3.637e-08
-2.40892e-06
-4.21664e-08
-2.39178e-06
-4.79688e-08
-2.37276e-06
-5.37713e-08
-2.35186e-06
-5.95677e-08
-2.32908e-06
-6.5351e-08
-2.30444e-06
-7.1114e-08
-2.27795e-06
-7.68486e-08
-2.24961e-06
-8.25466e-08
-2.21944e-06
-8.81987e-08
-2.18746e-06
-9.37955e-08
-2.15369e-06
-9.93264e-08
-2.11815e-06
-1.0478e-07
-2.08089e-06
-1.10146e-07
-2.04192e-06
-1.15412e-07
-2.00129e-06
-1.20566e-07
-1.95903e-06
-1.256e-07
-1.91519e-06
-1.30502e-07
-1.86983e-06
-1.35262e-07
-1.82298e-06
-1.3987e-07
-1.7747e-06
-1.44316e-07
-1.72505e-06
-1.48588e-07
-1.67409e-06
-1.52673e-07
-1.62188e-06
-1.5656e-07
-1.56851e-06
-1.60241e-07
-1.51402e-06
-1.63708e-07
-1.45851e-06
-1.66956e-07
-1.40203e-06
-1.69978e-07
-1.34468e-06
-1.72766e-07
-1.28652e-06
-1.75308e-07
-1.22765e-06
-1.77599e-07
-1.16814e-06
-1.7964e-07
-1.10807e-06
-1.81434e-07
-1.04754e-06
-1.82979e-07
-9.86616e-07
-1.84261e-07
-9.25393e-07
-1.85281e-07
-8.63951e-07
-1.8605e-07
-8.02368e-07
-1.86579e-07
-7.40725e-07
-1.86859e-07
-6.79106e-07
-1.86881e-07
-6.17584e-07
-1.86679e-07
-5.56226e-07
-1.86268e-07
-4.95107e-07
-1.85619e-07
-4.34297e-07
-1.84755e-07
-3.73851e-07
-1.83725e-07
-3.13828e-07
-1.82496e-07
-2.54287e-07
-1.81087e-07
-1.95268e-07
-1.79565e-07
-1.36806e-07
-1.77856e-07
-7.8959e-08
-1.76045e-07
-2.17194e-08
-1.74201e-07
3.48481e-08
-1.72173e-07
9.05777e-08
-1.69996e-07
1.45457e-07
-1.67755e-07
1.99514e-07
-1.65326e-07
2.52722e-07
-1.6278e-07
3.05033e-07
-1.60346e-07
3.56569e-07
-1.57638e-07
4.0743e-07
-1.5468e-07
4.57555e-07
-1.51891e-07
5.06942e-07
-1.49283e-07
5.55617e-07
-1.46856e-07
6.03615e-07
-1.44595e-07
6.50975e-07
-1.42469e-07
6.9772e-07
-1.40438e-07
7.43859e-07
-1.38432e-07
7.89359e-07
-1.36331e-07
8.34131e-07
-1.33921e-07
8.7798e-07
-1.30823e-07
9.20568e-07
-1.26291e-07
9.61307e-07
-1.19102e-07
9.99605e-07
-1.06382e-07
1.03494e-06
-8.47127e-08
-4.3855e-08
1.07198e-06
-1.33761e-08
1.84679e-09
-3.07729e-08
1.86065e-08
-4.87851e-08
3.19476e-08
-6.71386e-08
4.32915e-08
-8.5855e-08
5.33494e-08
-1.05027e-07
6.23285e-08
-1.2476e-07
7.0296e-08
-1.45136e-07
7.72999e-08
-1.66192e-07
8.34096e-08
-1.87913e-07
8.87191e-08
-2.10243e-07
9.33298e-08
-2.33107e-07
9.73355e-08
-2.56431e-07
1.00816e-07
-2.80145e-07
1.03835e-07
-3.04191e-07
1.06446e-07
-3.28521e-07
1.08696e-07
-3.53096e-07
1.10623e-07
-3.77883e-07
1.12265e-07
-4.02856e-07
1.13656e-07
-4.27994e-07
1.14829e-07
-4.53278e-07
1.15812e-07
-4.78696e-07
1.16636e-07
-5.04236e-07
1.17326e-07
-5.2989e-07
1.17906e-07
-5.55651e-07
1.18397e-07
-5.81517e-07
1.1882e-07
-6.07485e-07
1.19192e-07
-6.33554e-07
1.19528e-07
-6.59727e-07
1.1984e-07
-6.86004e-07
1.2014e-07
-7.1239e-07
1.20436e-07
-7.38889e-07
1.20737e-07
-7.65505e-07
1.21048e-07
-7.92243e-07
1.21374e-07
-8.1911e-07
1.21718e-07
-8.46109e-07
1.22082e-07
-8.73247e-07
1.22467e-07
-9.00527e-07
1.22874e-07
-9.27955e-07
1.23302e-07
-9.55532e-07
1.23751e-07
-9.83262e-07
1.24218e-07
-1.01114e-06
1.24703e-07
-1.03917e-06
1.25203e-07
-1.06735e-06
1.25714e-07
-1.09566e-06
1.26232e-07
-1.12411e-06
1.26752e-07
-1.15268e-06
1.27267e-07
-1.18137e-06
1.2777e-07
-1.21017e-06
1.28256e-07
-1.23908e-06
1.28717e-07
-1.26808e-06
1.29147e-07
-1.29716e-06
1.29541e-07
-1.32631e-06
1.29891e-07
-1.35552e-06
1.30192e-07
-1.38478e-06
1.30438e-07
-1.41406e-06
1.30624e-07
-1.44337e-06
1.30745e-07
-1.47266e-06
1.30795e-07
-1.50194e-06
1.30769e-07
-1.53118e-06
1.30662e-07
-1.56036e-06
1.3047e-07
-1.58945e-06
1.30188e-07
-1.61845e-06
1.29811e-07
-1.64731e-06
1.29335e-07
-1.67603e-06
1.28756e-07
-1.70457e-06
1.2807e-07
-1.73291e-06
1.27271e-07
-1.76101e-06
1.26356e-07
-1.78887e-06
1.2532e-07
-1.81644e-06
1.24158e-07
-1.84369e-06
1.22867e-07
-1.8706e-06
1.2144e-07
-1.89713e-06
1.19873e-07
-1.92325e-06
1.1816e-07
-1.94893e-06
1.16295e-07
-1.97412e-06
1.14273e-07
-1.9988e-06
1.12086e-07
-2.02291e-06
1.09728e-07
-2.04643e-06
1.07191e-07
-2.06931e-06
1.04467e-07
-2.09149e-06
1.01549e-07
-2.11295e-06
9.84283e-08
-2.13362e-06
9.50968e-08
-2.15345e-06
9.15464e-08
-2.17239e-06
8.7769e-08
-2.19039e-06
8.37574e-08
-2.20738e-06
7.95048e-08
-2.22331e-06
7.50055e-08
-2.23812e-06
7.02554e-08
-2.25174e-06
6.52515e-08
-2.26411e-06
5.99929e-08
-2.27516e-06
5.44809e-08
-2.28485e-06
4.87191e-08
-2.2931e-06
4.27133e-08
-2.29985e-06
3.64721e-08
-2.30506e-06
3.00062e-08
-2.30866e-06
2.33283e-08
-2.31061e-06
1.64525e-08
-2.31086e-06
9.39245e-09
-2.30937e-06
2.16015e-09
-2.30613e-06
-5.20356e-09
-2.30113e-06
-1.264e-08
-2.29434e-06
-2.01198e-08
-2.28578e-06
-2.76342e-08
-2.27541e-06
-3.51792e-08
-2.26325e-06
-4.27503e-08
-2.24927e-06
-5.03424e-08
-2.23349e-06
-5.79493e-08
-2.2159e-06
-6.55641e-08
-2.19649e-06