/*--------------------------------*- C++ -*----------------------------------*\
| =========                 |                                                 |
| \\      /  F ield         | OpenFOAM: The Open Source CFD Toolbox           |
|  \\    /   O peration     | Version:  2.2.x                                 |
|   \\  /    A nd           | Web:      www.OpenFOAM.org                      |
|    \\/     M anipulation  |                                                 |
\*---------------------------------------------------------------------------*/
FoamFile
{
    version     2.0;
    format      ascii;
    class       volVectorField;
    location    "760";
    object      U;
}
// * * * * * * * * * * * * * * * * * * * * * * * * * * * * * * * * * * * * * //

dimensions      [0 1 -1 0 0 0 0];

internalField   nonuniform List<vector> 
12225
(
(9.83972 -1.23842 0)
(9.73872 -0.73149 0)
(9.53698 -0.467335 0)
(9.32318 -0.307408 0)
(9.12438 -0.20596 0)
(8.94079 -0.139599 0)
(8.77069 -0.0949548 0)
(8.61331 -0.0642656 0)
(8.46789 -0.0428297 0)
(8.3335 -0.0276706 0)
(8.2092 -0.016847 0)
(8.09414 -0.00906447 0)
(7.98756 -0.00344281 0)
(7.88877 0.000631469 0)
(7.79703 0.00361773 0)
(7.7115 0.00604713 0)
(7.62629 0.00948408 0)
(7.56102 -0.0194356 0)
(10.0335 0.447389 0)
(10.0226 0.42693 0)
(9.98833 0.340233 0)
(9.94293 0.270976 0)
(9.89657 0.2178 0)
(9.84853 0.17721 0)
(9.79809 0.146655 0)
(9.74596 0.123665 0)
(9.69303 0.106217 0)
(9.63994 0.09282 0)
(9.58722 0.0824032 0)
(9.53528 0.0741941 0)
(9.48443 0.0676352 0)
(9.43493 0.0623341 0)
(9.38694 0.0580609 0)
(9.34064 0.0549462 0)
(9.29753 0.054182 0)
(9.263 0.0680776 0)
(9.9929 0.0267776 0)
(10.0022 -0.00877216 0)
(10.0178 -0.0275857 0)
(10.0247 -0.0224536 0)
(10.0278 -0.0110944 0)
(10.0281 0.000219101 0)
(10.0255 0.0102947 0)
(10.0204 0.0188256 0)
(10.0135 0.0257786 0)
(10.0054 0.0312974 0)
(9.99626 0.035593 0)
(9.98642 0.0388765 0)
(9.97609 0.0413367 0)
(9.96546 0.0431474 0)
(9.95473 0.0445001 0)
(9.94425 0.0456844 0)
(9.93517 0.0468552 0)
(9.92775 0.0448924 0)
(9.99998 0.0196747 0)
(10.0123 0.0433507 0)
(10.0308 0.0556687 0)
(10.0411 0.0652704 0)
(10.0483 0.070634 0)
(10.0543 0.0723624 0)
(10.0591 0.0721342 0)
(10.0629 0.0709804 0)
(10.0658 0.0693917 0)
(10.0683 0.0676234 0)
(10.0703 0.0658162 0)
(10.0719 0.0640405 0)
(10.0733 0.0623257 0)
(10.0745 0.0606851 0)
(10.0757 0.0591337 0)
(10.0771 0.057674 0)
(10.0795 0.0560427 0)
(10.0827 0.0526004 0)
(10.0023 0.0186711 0)
(10.0144 0.0407953 0)
(10.0302 0.0467992 0)
(10.0404 0.0491734 0)
(10.0485 0.0505688 0)
(10.056 0.0510892 0)
(10.0629 0.0512501 0)
(10.069 0.0513485 0)
(10.0746 0.0514253 0)
(10.0798 0.0514537 0)
(10.0847 0.051408 0)
(10.0893 0.0512676 0)
(10.0937 0.0510152 0)
(10.098 0.0506352 0)
(10.1023 0.0501042 0)
(10.1068 0.0493424 0)
(10.1117 0.048041 0)
(10.1167 0.0452295 0)
(10.0025 0.0189135 0)
(10.0131 0.0369797 0)
(10.0269 0.0431883 0)
(10.0373 0.0464942 0)
(10.0459 0.0491954 0)
(10.0539 0.0509854 0)
(10.0613 0.0520566 0)
(10.0681 0.0526824 0)
(10.0744 0.0529868 0)
(10.0804 0.0530269 0)
(10.086 0.0528435 0)
(10.0915 0.0524652 0)
(10.0968 0.0519061 0)
(10.102 0.051164 0)
(10.1072 0.0502087 0)
(10.1124 0.0489453 0)
(10.1177 0.0471364 0)
(10.1231 0.0443297 0)
(10.0022 0.0166135 0)
(10.0111 0.0317066 0)
(10.0232 0.0386717 0)
(10.0334 0.0426308 0)
(10.042 0.0455531 0)
(10.0502 0.0474291 0)
(10.0577 0.0484933 0)
(10.0647 0.0490535 0)
(10.0713 0.0492768 0)
(10.0775 0.0492425 0)
(10.0835 0.048996 0)
(10.0893 0.0485623 0)
(10.0949 0.0479475 0)
(10.1004 0.0471379 0)
(10.1058 0.0460912 0)
(10.1112 0.0447166 0)
(10.1165 0.0428505 0)
(10.1217 0.0402873 0)
(10.0019 0.0146598 0)
(10.0095 0.02805 0)
(10.0202 0.0353169 0)
(10.0299 0.0395445 0)
(10.0384 0.0425205 0)
(10.0464 0.0444687 0)
(10.054 0.0456242 0)
(10.061 0.0462626 0)
(10.0677 0.0465444 0)
(10.074 0.0465485 0)
(10.0801 0.0463194 0)
(10.086 0.0458812 0)
(10.0917 0.0452391 0)
(10.0973 0.0443794 0)
(10.1027 0.0432644 0)
(10.1081 0.0418243 0)
(10.1132 0.0399574 0)
(10.1182 0.0375887 0)
(10.0017 0.0130733 0)
(10.0082 0.0250864 0)
(10.0178 0.0322495 0)
(10.0268 0.036573 0)
(10.0351 0.0395772 0)
(10.0429 0.0415763 0)
(10.0504 0.0427967 0)
(10.0574 0.0434843 0)
(10.0641 0.0437935 0)
(10.0705 0.0438061 0)
(10.0766 0.0435691 0)
(10.0825 0.0431085 0)
(10.0882 0.0424314 0)
(10.0938 0.0415271 0)
(10.0992 0.0403658 0)
(10.1044 0.0388978 0)
(10.1094 0.0370621 0)
(10.1142 0.0348512 0)
(10.0015 0.0115164 0)
(10.0071 0.0221285 0)
(10.0154 0.0289738 0)
(10.0237 0.0332937 0)
(10.0316 0.0362891 0)
(10.0392 0.0383096 0)
(10.0464 0.0395718 0)
(10.0534 0.0402934 0)
(10.06 0.0406207 0)
(10.0663 0.0406371 0)
(10.0724 0.0403918 0)
(10.0783 0.0399123 0)
(10.084 0.0392084 0)
(10.0895 0.0382748 0)
(10.0948 0.037092 0)
(10.0999 0.0356308 0)
(10.1047 0.0338632 0)
(10.1093 0.0318206 0)
(10.0013 0.00996523 0)
(10.006 0.0191747 0)
(10.0131 0.0255395 0)
(10.0207 0.0297368 0)
(10.0281 0.0326544 0)
(10.0353 0.0346427 0)
(10.0423 0.0359064 0)
(10.049 0.0366345 0)
(10.0555 0.0369621 0)
(10.0617 0.0369715 0)
(10.0677 0.0367123 0)
(10.0735 0.0362138 0)
(10.0791 0.0354894 0)
(10.0845 0.0345403 0)
(10.0897 0.0333586 0)
(10.0946 0.0319336 0)
(10.0992 0.0302615 0)
(10.1037 0.0283911 0)
(10.0011 0.00843239 0)
(10.005 0.0162629 0)
(10.0111 0.0219941 0)
(10.0179 0.0259332 0)
(10.0248 0.0286907 0)
(10.0315 0.0305844 0)
(10.0382 0.0318018 0)
(10.0446 0.0325031 0)
(10.0509 0.0328087 0)
(10.0569 0.0327968 0)
(10.0627 0.0325169 0)
(10.0684 0.0319996 0)
(10.0738 0.0312625 0)
(10.079 0.0303137 0)
(10.084 0.0291563 0)
(10.0887 0.0277939 0)
(10.0931 0.0262384 0)
(10.0974 0.0245431 0)
(10.0009 0.00693321 0)
(10.0042 0.0134122 0)
(10.0094 0.0183727 0)
(10.0154 0.0219114 0)
(10.0216 0.0244146 0)
(10.0279 0.026142 0)
(10.0342 0.0272564 0)
(10.0403 0.0278901 0)
(10.0463 0.0281462 0)
(10.0521 0.028096 0)
(10.0577 0.0277871 0)
(10.0631 0.0272513 0)
(10.0683 0.0265097 0)
(10.0733 0.0255766 0)
(10.0781 0.0244637 0)
(10.0826 0.0231841 0)
(10.0868 0.0217577 0)
(10.0909 0.0202352 0)
(10.0008 0.00547398 0)
(10.0035 0.0106235 0)
(10.0079 0.0147004 0)
(10.0132 0.0176994 0)
(10.0189 0.0198433 0)
(10.0246 0.0213223 0)
(10.0305 0.0222683 0)
(10.0363 0.0227863 0)
(10.0419 0.0229603 0)
(10.0474 0.0228521 0)
(10.0528 0.0225055 0)
(10.058 0.0219518 0)
(10.0629 0.0212142 0)
(10.0677 0.0203111 0)
(10.0722 0.0192594 0)
(10.0765 0.018077 0)
(10.0805 0.0167864 0)
(10.0844 0.0154321 0)
(10.0006 0.00405022 0)
(10.0029 0.00788182 0)
(10.0067 0.0109838 0)
(10.0114 0.0133137 0)
(10.0165 0.0149864 0)
(10.0218 0.0161267 0)
(10.0272 0.0168312 0)
(10.0326 0.0171784 0)
(10.038 0.0172322 0)
(10.0432 0.0170424 0)
(10.0483 0.0166464 0)
(10.0532 0.016073 0)
(10.0579 0.015345 0)
(10.0624 0.0144819 0)
(10.0667 0.0135022 0)
(10.0708 0.0124247 0)
(10.0746 0.0112705 0)
(10.0783 0.0100769 0)
(10.0006 0.00264437 0)
(10.0025 0.0051513 0)
(10.0058 0.00719847 0)
(10.0099 0.00874078 0)
(10.0145 0.00982951 0)
(10.0194 0.0105355 0)
(10.0245 0.0109205 0)
(10.0295 0.0110362 0)
(10.0346 0.0109263 0)
(10.0395 0.0106267 0)
(10.0443 0.0101659 0)
(10.049 0.00956698 0)
(10.0535 0.00884958 0)
(10.0578 0.00803129 0)
(10.0618 0.00712875 0)
(10.0657 0.00615856 0)
(10.0693 0.00513847 0)
(10.0729 0.00409829 0)
(10.0005 0.00122406 0)
(10.0022 0.00237184 0)
(10.0052 0.0032834 0)
(10.0089 0.00392835 0)
(10.0131 0.00432375 0)
(10.0177 0.0044999 0)
(10.0224 0.00448577 0)
(10.0272 0.0043073 0)
(10.032 0.00398745 0)
(10.0366 0.00354604 0)
(10.0412 0.0029998 0)
(10.0457 0.00236345 0)
(10.0499 0.00165024 0)
(10.054 0.000872658 0)
(10.0579 4.27771e-05 0)
(10.0616 -0.000827372 0)
(10.0651 -0.00172505 0)
(10.0685 -0.00262752 0)
(10.0005 -0.000174846 0)
(10.0021 -0.000378133 0)
(10.0049 -0.00062376 0)
(10.0084 -0.000919041 0)
(10.0125 -0.00126524 0)
(10.0168 -0.00166397 0)
(10.0214 -0.00211592 0)
(10.026 -0.00261986 0)
(10.0306 -0.00317331 0)
(10.0351 -0.00377309 0)
(10.0395 -0.00441531 0)
(10.0438 -0.00509566 0)
(10.0479 -0.0058092 0)
(10.0519 -0.00655042 0)
(10.0556 -0.00731329 0)
(10.0592 -0.00809135 0)
(10.0626 -0.00887717 0)
(10.0659 -0.00965482 0)
(10.0005 -0.00146819 0)
(10.0021 -0.00292944 0)
(10.0049 -0.00425985 0)
(10.0085 -0.00543528 0)
(10.0125 -0.00647187 0)
(10.0169 -0.00740332 0)
(10.0214 -0.00825915 0)
(10.026 -0.00906128 0)
(10.0305 -0.00982679 0)
(10.035 -0.0105689 0)
(10.0394 -0.0112969 0)
(10.0436 -0.0120171 0)
(10.0476 -0.0127328 0)
(10.0515 -0.0134457 0)
(10.0552 -0.0141558 0)
(10.0587 -0.0148619 0)
(10.0621 -0.0155613 0)
(10.0653 -0.0162437 0)
(10.0005 -0.00265615 0)
(10.0022 -0.0052871 0)
(10.0052 -0.00761649 0)
(10.009 -0.00957471 0)
(10.0132 -0.0112057 0)
(10.0177 -0.0125862 0)
(10.0223 -0.0137755 0)
(10.0269 -0.0148172 0)
(10.0315 -0.0157471 0)
(10.036 -0.0165939 0)
(10.0404 -0.0173787 0)
(10.0446 -0.0181169 0)
(10.0486 -0.0188196 0)
(10.0525 -0.0194945 0)
(10.0562 -0.020147 0)
(10.0597 -0.0207804 0)
(10.063 -0.0213958 0)
(10.0662 -0.0219869 0)
(10.0005 -0.00378259 0)
(10.0024 -0.00756515 0)
(10.0057 -0.0108505 0)
(10.0098 -0.0135024 0)
(10.0143 -0.015634 0)
(10.019 -0.0173856 0)
(10.0238 -0.0188446 0)
(10.0286 -0.0200743 0)
(10.0333 -0.0211296 0)
(10.0379 -0.0220539 0)
(10.0423 -0.022879 0)
(10.0465 -0.0236279 0)
(10.0506 -0.0243177 0)
(10.0545 -0.0249613 0)
(10.0582 -0.0255686 0)
(10.0617 -0.0261471 0)
(10.065 -0.0267021 0)
(10.0682 -0.0272325 0)
(10.0005 -0.00485017 0)
(10.0026 -0.00983984 0)
(10.0063 -0.0140643 0)
(10.0109 -0.0173012 0)
(10.0158 -0.0198215 0)
(10.0208 -0.0218513 0)
(10.0259 -0.0234979 0)
(10.0308 -0.0248431 0)
(10.0357 -0.0259614 0)
(10.0403 -0.0269092 0)
(10.0448 -0.0277268 0)
(10.0491 -0.0284438 0)
(10.0532 -0.0290828 0)
(10.0571 -0.0296612 0)
(10.0608 -0.030193 0)
(10.0643 -0.0306891 0)
(10.0675 -0.0311578 0)
(10.0707 -0.0316002 0)
(10.0005 -0.00582567 0)
(10.0027 -0.0121879 0)
(10.0071 -0.0173574 0)
(10.0124 -0.021081 0)
(10.0177 -0.0239236 0)
(10.023 -0.0261866 0)
(10.0283 -0.0279846 0)
(10.0334 -0.0294267 0)
(10.0384 -0.0306092 0)
(10.0431 -0.0315974 0)
(10.0477 -0.0324341 0)
(10.052 -0.033151 0)
(10.0561 -0.0337725 0)
(10.06 -0.0343181 0)
(10.0637 -0.0348041 0)
(10.0672 -0.0352457 0)
(10.0704 -0.0356578 0)
(10.0736 -0.0360533 0)
(10.0002 -0.0066339 0)
(10.0027 -0.014658 0)
(10.0079 -0.0205669 0)
(10.0139 -0.024501 0)
(10.0196 -0.0275192 0)
(10.0252 -0.0298833 0)
(10.0307 -0.0316745 0)
(10.0359 -0.0330469 0)
(10.041 -0.0341338 0)
(10.0458 -0.0350163 0)
(10.0503 -0.035745 0)
(10.0546 -0.036356 0)
(10.0587 -0.0368755 0)
(10.0626 -0.0373232 0)
(10.0662 -0.0377146 0)
(10.0696 -0.0380644 0)
(10.0728 -0.0383871 0)
(10.0758 -0.0386938 0)
(9.99982 -0.00722849 0)
(10.0024 -0.0181404 0)
(10.0087 -0.0246968 0)
(10.0154 -0.0286208 0)
(10.0214 -0.0318976 0)
(10.0272 -0.0346044 0)
(10.0328 -0.0366956 0)
(10.0381 -0.0383118 0)
(10.0431 -0.0395785 0)
(10.0479 -0.0405712 0)
(10.0524 -0.0413448 0)
(10.0566 -0.0419442 0)
(10.0606 -0.0424049 0)
(10.0643 -0.0427545 0)
(10.0678 -0.0430153 0)
(10.0711 -0.0432092 0)
(10.0741 -0.0433646 0)
(10.0771 -0.043526 0)
(9.99841 -0.00501965 0)
(10.0007 -0.0202896 0)
(10.0088 -0.0271054 0)
(10.016 -0.0298118 0)
(10.0219 -0.0317571 0)
(10.0276 -0.0332581 0)
(10.0332 -0.0344539 0)
(10.0385 -0.0355264 0)
(10.0435 -0.0365357 0)
(10.0481 -0.0374778 0)
(10.0525 -0.0383428 0)
(10.0565 -0.0391261 0)
(10.0603 -0.0398252 0)
(10.0639 -0.0404383 0)
(10.0672 -0.0409644 0)
(10.0702 -0.0414055 0)
(10.0729 -0.0417725 0)
(10.0753 -0.0420918 0)
(9.99479 -0.00318732 0)
(9.99583 -0.0256797 0)
(10.0072 -0.0394666 0)
(10.0157 -0.0487322 0)
(10.0218 -0.0546392 0)
(10.0272 -0.0576148 0)
(10.0323 -0.0587608 0)
(10.0368 -0.0589292 0)
(10.0409 -0.0585655 0)
(10.0446 -0.0579079 0)
(10.0481 -0.057102 0)
(10.0512 -0.0562371 0)
(10.0541 -0.0553633 0)
(10.0567 -0.0545041 0)
(10.059 -0.0536644 0)
(10.0611 -0.052836 0)
(10.0629 -0.0520128 0)
(10.0645 -0.0512036 0)
(9.98519 0.00576671 0)
(9.98187 0.0248665 0)
(9.99411 0.0365105 0)
(10.0037 0.0321383 0)
(10.0109 0.0223053 0)
(10.0167 0.0122843 0)
(10.0211 0.00312686 0)
(10.024 -0.00497244 0)
(10.0259 -0.0119442 0)
(10.0269 -0.0178303 0)
(10.0272 -0.0227437 0)
(10.0269 -0.0268159 0)
(10.0261 -0.0301705 0)
(10.0248 -0.0329136 0)
(10.0232 -0.0351274 0)
(10.0213 -0.0368624 0)
(10.0191 -0.0381341 0)
(10.0161 -0.0388377 0)
(10.0137 -0.317342 0)
(10.0102 -0.326326 0)
(9.99895 -0.271524 0)
(9.98283 -0.224891 0)
(9.96835 -0.188168 0)
(9.95437 -0.158842 0)
(9.93927 -0.135772 0)
(9.92274 -0.117762 0)
(9.90501 -0.10364 0)
(9.88628 -0.0924767 0)
(9.86676 -0.0835748 0)
(9.84663 -0.076414 0)
(9.8261 -0.0705999 0)
(9.80532 -0.0658293 0)
(9.78448 -0.0618619 0)
(9.76373 -0.0584859 0)
(9.74325 -0.0554723 0)
(9.7224 -0.0522056 0)
(9.95412 0.913092 0)
(9.95406 0.561002 0)
(9.86626 0.375415 0)
(9.7529 0.258525 0)
(9.63884 0.180489 0)
(9.52774 0.126934 0)
(9.41987 0.0891673 0)
(9.31602 0.0619604 0)
(9.21683 0.0420726 0)
(9.12254 0.027383 0)
(9.03317 0.016448 0)
(8.94862 0.00826114 0)
(8.86876 0.00210907 0)
(8.7934 -0.00252067 0)
(8.72235 -0.00599805 0)
(8.65545 -0.00858342 0)
(8.59273 -0.0104217 0)
(8.53229 -0.0113575 0)
(0.0059185 -0.0144853 0)
(0.0162486 -0.0170748 0)
(0.0244176 -0.0130379 0)
(0.0284733 -0.00669278 0)
(0.0268324 0.000331482 0)
(0.0203584 0.00702719 0)
(0.0101138 0.0127791 -4.38155e-19)
(-0.00405346 0.0173361 4.27191e-19)
(-0.0204017 0.0202011 0)
(-0.0385861 0.0221192 3.25185e-19)
(-0.0584073 0.0236489 0)
(-0.0796403 0.0249859 0)
(-0.102143 0.0261722 0)
(-0.125793 0.0272074 -2.01459e-19)
(-0.150467 0.0280875 0)
(-0.176047 0.0288149 0)
(-0.202419 0.0293983 1.5271e-19)
(-0.229476 0.0298505 0)
(-0.257121 0.0301862 0)
(-0.285267 0.0304204 0)
(-0.313835 0.0305677 -1.14027e-19)
(-0.34276 0.0306419 0)
(-0.371983 0.0306552 -1.01018e-19)
(-0.401455 0.0306186 0)
(-0.431137 0.0305419 0)
(-0.460995 0.0304333 -8.62498e-20)
(-0.491002 0.0302999 0)
(-0.521137 0.0301476 7.86294e-20)
(-0.551384 0.0299811 0)
(-0.581731 0.0298044 -7.22901e-20)
(-0.61217 0.0296203 0)
(-0.642695 0.0294309 0)
(-0.673302 0.0292378 0)
(-0.70399 0.0290416 0)
(-0.734759 0.0288428 0)
(-0.765608 0.0286413 5.84236e-20)
(-0.796538 0.028437 0)
(-0.82755 0.0282298 -1.0996e-19)
(-0.858644 0.0280199 0)
(-0.88982 0.0278082 1.039e-19)
(-0.921081 0.0275968 0)
(-0.952438 0.0273915 0)
(-0.983897 0.027205 -9.60561e-20)
(-1.01542 0.0270548 0)
(-1.04711 0.0269443 -9.14684e-20)
(-1.07895 0.0268545 8.93435e-20)
(-1.11097 0.0267753 0)
(-1.14317 0.0267012 8.53909e-20)
(-1.17555 0.0266285 8.35493e-20)
(-1.20811 0.0265546 0)
(-1.24085 0.0264775 0)
(-1.27376 0.0263955 0)
(-1.30684 0.0263072 0)
(-1.34007 0.0262114 0)
(-1.37345 0.026107 -7.40449e-20)
(-1.40696 0.025993 0)
(-1.44059 0.0258684 7.13648e-20)
(-1.47432 0.0257325 0)
(-1.50814 0.0255843 0)
(-1.54203 0.0254233 -6.77108e-20)
(-1.57597 0.0252488 0)
(-1.60994 0.0250603 6.54878e-20)
(-1.64392 0.0248571 0)
(-1.67789 0.0246387 0)
(-1.71182 0.0244046 0)
(-1.74568 0.0241544 -6.14705e-20)
(-1.77945 0.0238874 0)
(-1.8131 0.0236032 0)
(-1.84661 0.0233015 -5.87704e-20)
(-1.87994 0.0229817 0)
(-1.91306 0.0226435 -5.70926e-20)
(-1.94593 0.0222863 0)
(-1.97854 0.0219097 0)
(-2.01083 0.0215131 0)
(-2.04277 0.0210959 5.39735e-20)
(-2.07432 0.0206577 0)
(-2.10545 0.0201979 0)
(-2.1361 0.0197158 5.17954e-20)
(-2.16624 0.0192109 5.10928e-20)
(-2.19582 0.0186824 0)
(-2.2248 0.0181297 4.97146e-20)
(-2.25311 0.0175521 0)
(-2.28072 0.0169491 9.67283e-20)
(-2.30756 0.0163202 0)
(-2.33358 0.0156646 9.40625e-20)
(-2.35873 0.0149821 0)
(-2.38295 0.0142724 -9.14117e-20)
(-2.40616 0.0135353 0)
(-2.42832 0.012771 0)
(-2.44936 0.0119797 0)
(-2.46921 0.011162 8.60749e-20)
(-2.48782 0.0103185 0)
(-2.50512 0.0094502 -8.33485e-20)
(-2.52105 0.00855848 0)
(-2.53554 0.00764486 8.05563e-20)
(-2.54855 0.00671105 7.91293e-20)
(-2.56001 0.00575879 7.76782e-20)
(-2.56987 0.00478986 0)
(-2.57809 0.00380589 0)
(-2.58461 0.00280744 0)
(-2.5894 0.00179402 0)
(-2.59239 0.000771715 0)
(-2.59356 -0.00024475 0)
(-2.59291 -0.00125145 0)
(-2.59042 -0.00225337 0)
(-2.58607 -0.00325073 -6.29597e-20)
(-2.57987 -0.00424317 -6.10906e-20)
(-2.57179 -0.00523018 0)
(-2.56183 -0.00621118 0)
(-2.54998 -0.00718558 0)
(-2.53623 -0.00815268 -5.30643e-20)
(-2.52059 -0.00911175 0)
(-2.50304 -0.0100619 0)
(-2.48359 -0.0110023 0)
(-2.46224 -0.0119319 0)
(-2.439 -0.0128497 4.16011e-20)
(-2.41388 -0.0137544 0)
(-2.38688 -0.0146449 0)
(-2.35803 -0.0155198 -3.38292e-20)
(-2.32734 -0.0163779 3.10717e-20)
(-2.29484 -0.017218 0)
(-2.26054 -0.0180388 2.52871e-20)
(-2.22449 -0.0188394 0)
(-2.18671 -0.0196185 -1.91193e-20)
(-2.14725 -0.0203752 0)
(-2.10613 -0.0211084 0)
(-2.06341 -0.021817 0)
(-2.01913 -0.0224996 0)
(-1.97334 -0.0231549 0)
(-1.92611 -0.0237817 -4.01628e-21)
(-1.87748 -0.0243795 -1.19234e-20)
(-1.82752 -0.0249478 0)
(-1.7763 -0.025486 0)
(-1.72388 -0.0259932 0)
(-1.67032 -0.0264686 4.64477e-20)
(-1.61572 -0.0269113 0)
(-1.56013 -0.0273211 0)
(-1.50364 -0.0276983 0)
(-1.44633 -0.0280438 8.63283e-20)
(-1.38827 -0.028357 -9.72718e-20)
(-1.32954 -0.0286363 0)
(-1.27024 -0.028882 0)
(-1.21043 -0.0290967 -1.32806e-19)
(-1.1502 -0.0292817 -1.45645e-19)
(-1.08963 -0.0294352 0)
(-1.02881 -0.0295564 0)
(-0.967805 -0.0296509 1.87601e-19)
(-0.906691 -0.0297203 -2.02864e-19)
(-0.845547 -0.0297594 0)
(-0.78445 -0.0297735 0)
(-0.723459 -0.0297697 -2.5315e-19)
(-0.66264 -0.0297397 0)
(-0.602063 -0.0296907 0)
(-0.541769 -0.0296331 -3.1145e-19)
(-0.481833 -0.0295396 0)
(-0.422291 -0.0294545 -3.55788e-19)
(-0.36318 -0.0293679 0)
(-0.30451 -0.0292552 0)
(-0.246341 -0.029175 0)
(-0.188745 -0.0290491 4.61464e-19)
(-0.131537 -0.0289396 0)
(-0.0751119 -0.0288918 0)
(-0.0193871 -0.0288173 0)
(0.0370352 -0.0280966 0)
(0.0906639 -0.0268395 0)
(0.143893 -0.0257231 0)
(0.196174 -0.0247466 5.29344e-19)
(0.247633 -0.023867 5.19153e-19)
(0.298386 -0.023059 0)
(0.3485 -0.022309 0)
(0.398021 -0.0216045 0)
(0.446978 -0.0209319 -4.84863e-19)
(0.495368 -0.0202722 0)
(0.543116 -0.0195897 9.41421e-19)
(0.590079 -0.0188309 -9.28722e-19)
(0.635727 -0.0178441 -9.17315e-19)
(0.679607 -0.016458 9.07811e-19)
(0.71808 -0.0137198 -9.01966e-19)
(0.75334 -0.00922183 9.03389e-19)
(0.741129 0.00675905 0)
(0.00279155 -0.0315122 0)
(0.00500818 -0.0266729 0)
(0.00145498 -0.0117344 4.68282e-19)
(-0.00635608 0.00444861 0)
(-0.0168263 0.0188774 -3.07937e-19)
(-0.0296789 0.0309236 -2.78684e-19)
(-0.0445492 0.0406117 -1.29419e-19)
(-0.061224 0.0481452 -1.21545e-19)
(-0.0795105 0.053907 0)
(-0.0992826 0.0584616 -1.07598e-19)
(-0.120366 0.0622195 0)
(-0.142571 0.0654092 0)
(-0.165736 0.0681431 1.78859e-19)
(-0.189726 0.0704747 8.42748e-20)
(-0.21443 0.0724352 -1.58859e-19)
(-0.239751 0.0740511 -1.50078e-19)
(-0.265603 0.07535 -7.10738e-20)
(-0.291911 0.0763617 0)
(-0.318606 0.0771176 0)
(-0.345628 0.077649 0)
(-0.372926 0.0779866 -5.80474e-20)
(-0.400454 0.0781592 0)
(-0.428174 0.0781936 1.59467e-19)
(-0.456056 0.0781143 0)
(-0.484073 0.0779429 0)
(-0.512206 0.0776988 4.71203e-20)
(-0.54044 0.0773986 0)
(-0.568763 0.0770566 -4.37889e-20)
(-0.597168 0.0766849 -8.44894e-20)
(-0.625653 0.0762935 4.0907e-20)
(-0.654216 0.0758906 0)
(-0.682859 0.0754825 0)
(-0.711584 0.0750742 0)
(-0.740398 0.0746696 -7.22635e-20)
(-0.769307 0.0742711 -7.02517e-20)
(-0.798316 0.0738806 -3.4234e-20)
(-0.827436 0.073499 0)
(-0.856674 0.0731271 6.49928e-20)
(-0.886039 0.0727651 0)
(-0.915541 0.0724133 -6.1883e-20)
(-0.94519 0.0720723 0)
(-0.974996 0.0717446 0)
(-1.00497 0.071438 5.77883e-20)
(-1.03511 0.0711678 0)
(-1.06542 0.0709353 1.65864e-19)
(-1.09589 0.0707265 -5.42339e-20)
(-1.12651 0.0705307 0)
(-1.15729 0.0703392 -5.21022e-20)
(-1.18822 0.0701455 -5.10985e-20)
(-1.2193 0.0699443 0)
(-1.25053 0.0697312 0)
(-1.28189 0.0695025 0)
(-1.31339 0.0692549 0)
(-1.345 0.0689855 0)
(-1.37672 0.0686917 4.57994e-20)
(-1.40854 0.0683709 8.97953e-20)
(-1.44045 0.068021 -4.42647e-20)
(-1.47242 0.0676398 0)
(-1.50444 0.0672256 8.54095e-20)
(-1.5365 0.0667767 -4.1898e-20)
(-1.56858 0.0662913 0)
(-1.60065 0.0657683 -4.08245e-20)
(-1.63269 0.0652061 0)
(-1.66469 0.0646036 0)
(-1.69662 0.0639594 -7.7738e-20)
(-1.72845 0.0632725 3.84041e-20)
(-1.76017 0.0625417 -7.54442e-20)
(-1.79173 0.061766 7.43381e-20)
(-1.82313 0.0609443 3.67404e-20)
(-1.85432 0.0600758 0)
(-1.88527 0.0591593 3.569e-20)
(-1.91596 0.0581937 0)
(-1.94636 0.057178 0)
(-1.97642 0.056111 0)
(-2.00611 0.0549913 3.34971e-20)
(-2.0354 0.0538179 0)
(-2.06425 0.0525892 6.53021e-20)
(-2.09261 0.0513039 -9.66509e-20)
(-2.12045 0.0499604 -3.18161e-20)
(-2.14772 0.0485572 0)
(-2.17437 0.0470929 -3.08986e-20)
(-2.20035 0.0455658 0)
(-2.22562 0.0439747 -5.9979e-20)
(-2.25012 0.0423182 0)
(-2.2738 0.0405952 -5.81661e-20)
(-2.2966 0.0388048 1.14246e-19)
(-2.31846 0.0369465 5.6347e-20)
(-2.33932 0.0350203 0)
(-2.35913 0.0330267 0)
(-2.37782 0.0309668 0)
(-2.39532 0.0288423 -5.26464e-20)
(-2.41158 0.0266555 0)
(-2.42653 0.0244095 5.07443e-20)
(-2.44011 0.0221083 0)
(-2.45227 0.0197565 -1.46295e-19)
(-2.46294 0.0173593 -4.77998e-20)
(-2.47206 0.0149224 -4.67899e-20)
(-2.4796 0.0124514 0)
(-2.48549 0.00995157 0)
(-2.48969 0.00742531 0)
(-2.49216 0.00487183 0)
(-2.49282 0.0023093 0)
(-2.49172 -0.000232207 -8.07388e-20)
(-2.48882 -0.00274482 -7.84232e-20)
(-2.4841 -0.00523198 0)
(-2.47757 -0.00769365 3.6728e-20)
(-2.4692 -0.0101286 3.54831e-20)
(-2.45898 -0.0125353 0)
(-2.44691 -0.0149118 6.60986e-20)
(-2.43298 -0.0172564 0)
(-2.41718 -0.0195668 -3.05592e-20)
(-2.39952 -0.0218409 0)
(-2.37998 -0.0240763 0)
(-2.35857 -0.0262706 5.24132e-20)
(-2.3353 -0.0284209 0)
(-2.31016 -0.0305244 -2.30395e-20)
(-2.28318 -0.0325782 0)
(-2.25436 -0.0345791 0)
(-2.22372 -0.0365238 -1.89013e-20)
(-2.19128 -0.0384088 -1.67536e-20)
(-2.15706 -0.0402311 0)
(-2.12109 -0.0419878 1.40385e-20)
(-2.0834 -0.0436763 0)
(-2.04402 -0.0452939 -1.06478e-20)
(-2.00299 -0.0468382 -1.71424e-20)
(-1.96036 -0.048307 0)
(-1.91616 -0.0496979 0)
(-1.87045 -0.0510079 0)
(-1.82327 -0.0522342 0)
(-1.77469 -0.0533745 1.9874e-21)
(-1.72476 -0.0544277 1.59319e-20)
(-1.67354 -0.0553931 0)
(-1.62111 -0.05627 0)
(-1.56752 -0.0570579 0)
(-1.51284 -0.0577552 -2.17497e-20)
(-1.45716 -0.0583604 0)
(-1.40054 -0.0588738 0)
(-1.34307 -0.0592969 6.65683e-20)
(-1.28482 -0.0596329 3.66035e-20)
(-1.22587 -0.0598818 4.26726e-20)
(-1.16629 -0.0600415 0)
(-1.10618 -0.0601136 0)
(-1.04562 -0.0601038 5.5717e-20)
(-0.984672 -0.0600171 -5.82808e-20)
(-0.923426 -0.0598511 0)
(-0.861963 -0.0596054 0)
(-0.800362 -0.0592925 -7.36124e-20)
(-0.738689 -0.0589175 2.32641e-19)
(-0.677017 -0.058472 0)
(-0.615426 -0.0579659 0)
(-0.553972 -0.0574158 9.20176e-20)
(-0.492718 -0.0568084 0)
(-0.431727 -0.0561552 2.0096e-19)
(-0.371044 -0.0554791 -1.04308e-19)
(-0.310735 -0.05474 0)
(-0.250808 -0.0539971 1.15653e-19)
(-0.191362 -0.0532503 2.39145e-19)
(-0.13232 -0.0524565 0)
(-0.0738272 -0.0516876 0)
(-0.0158874 -0.0508911 -1.34683e-19)
(0.0418288 -0.0500141 0)
(0.0983596 -0.0491259 2.76317e-19)
(0.154153 -0.0483265 0)
(0.209421 -0.047166 0)
(0.26371 -0.0456866 0)
(0.317464 -0.0443722 0)
(0.370496 -0.0431753 -1.46135e-19)
(0.422862 -0.0420804 -1.47467e-19)
(0.474628 -0.0410661 0)
(0.525844 -0.0401155 0)
(0.57655 -0.0392123 0)
(0.62677 -0.0383348 1.52101e-19)
(0.676496 -0.0374482 0)
(0.725657 -0.036489 -3.0811e-19)
(0.774114 -0.0353464 3.0996e-19)
(0.821426 -0.0337695 3.11829e-19)
(0.86724 -0.0313499 3.11999e-19)
(0.909022 -0.02682 3.16417e-19)
(0.949388 -0.0184472 3.18948e-19)
(0.966115 0.00117877 0)
(-0.00249773 -0.0300756 0)
(-0.00970923 -0.0116936 0)
(-0.021151 0.010909 -2.90227e-19)
(-0.0341456 0.0304716 -2.1657e-19)
(-0.0484395 0.0473266 1.84017e-19)
(-0.0637509 0.0617304 1.66113e-19)
(-0.080093 0.0738408 4.963e-23)
(-0.0975184 0.0838614 0)
(-0.116045 0.0920776 0)
(-0.13563 0.0988386 0)
(-0.156167 0.104456 0)
(-0.177528 0.109158 0)
(-0.199587 0.113099 -3.35242e-19)
(-0.222239 0.116383 0)
(-0.245394 0.119082 1.0105e-19)
(-0.268978 0.121258 9.62408e-20)
(-0.292929 0.122964 0)
(-0.317197 0.124253 0)
(-0.341737 0.125174 0)
(-0.366512 0.125776 0)
(-0.39149 0.126104 7.69809e-20)
(-0.416645 0.1262 0)
(-0.441955 0.126105 -7.11063e-20)
(-0.467402 0.125853 0)
(-0.492974 0.125476 0)
(-0.518659 0.125002 0)
(-0.54445 0.124455 -1.23182e-19)
(-0.570345 0.123855 0)
(-0.596339 0.123222 5.77773e-20)
(-0.622434 0.122568 -1.11977e-19)
(-0.648632 0.121905 0)
(-0.674936 0.121244 0)
(-0.70135 0.120592 0)
(-0.727881 0.119953 5.00186e-20)
(-0.754535 0.119332 4.87203e-20)
(-0.781318 0.118731 0)
(-0.808239 0.118153 0)
(-0.835303 0.117598 -9.03262e-20)
(-0.86252 0.117067 -8.82188e-20)
(-0.889894 0.11656 8.62118e-20)
(-0.917434 0.116077 0)
(-0.945143 0.115619 0)
(-0.973026 0.115187 0)
(-1.00108 0.114782 0)
(-1.0293 0.1144 -7.75653e-20)
(-1.05768 0.114034 -7.58888e-20)
(-1.08621 0.113674 7.44005e-20)
(-1.1149 0.113313 0)
(-1.14373 0.112943 0)
(-1.1727 0.112558 0)
(-1.20181 0.112151 0)
(-1.23104 0.111718 -6.77164e-20)
(-1.2604 0.111254 0)
(-1.28986 0.110753 0)
(-1.31942 0.110213 -6.42144e-20)
(-1.34907 0.109629 -6.32603e-20)
(-1.37878 0.108997 0)
(-1.40856 0.108316 1.22046e-19)
(-1.43838 0.107581 -6.01621e-20)
(-1.46822 0.106791 5.91868e-20)
(-1.49807 0.105942 0)
(-1.5279 0.105032 0)
(-1.55771 0.104061 0)
(-1.58746 0.103024 0)
(-1.61713 0.101922 5.46762e-20)
(-1.64671 0.100751 1.07401e-19)
(-1.67617 0.0995101 5.30186e-20)
(-1.70547 0.0981981 -5.22163e-20)
(-1.73461 0.0968132 0)
(-1.76354 0.0953537 1.01055e-19)
(-1.79224 0.0938182 9.95454e-20)
(-1.82068 0.0922048 9.80617e-20)
(-1.84883 0.0905119 -9.66022e-20)
(-1.87666 0.0887374 0)
(-1.90414 0.0868796 -1.40742e-19)
(-1.93122 0.0849362 0)
(-1.95788 0.0829051 4.53684e-20)
(-1.98407 0.0807839 4.49096e-20)
(-2.00975 0.07857 0)
(-2.03489 0.0762609 0)
(-2.05943 0.0738541 8.55561e-20)
(-2.08334 0.0713471 0)
(-2.10656 0.0687374 8.28975e-20)
(-2.12904 0.0660229 0)
(-2.15074 0.0632017 -8.02493e-20)
(-2.17159 0.0602722 -1.58e-19)
(-2.19154 0.0572337 0)
(-2.21053 0.0540859 0)
(-2.2285 0.0508298 0)
(-2.24539 0.0474668 -7.35778e-20)
(-2.26114 0.0439997 0)
(-2.27569 0.0404323 -7.08521e-20)
(-2.28897 0.0367697 0)
(-2.30093 0.0330184 0)
(-2.3115 0.0291858 1.33357e-19)
(-2.32063 0.0252804 0)
(-2.32825 0.0213114 6.3788e-20)
(-2.33432 0.0172882 0)
(-2.33879 0.0132198 6.08368e-20)
(-2.34162 0.00911221 0)
(-2.34274 0.00497373 0)
(-2.34216 0.000842578 0)
(-2.33986 -0.00324686 1.63541e-19)
(-2.33581 -0.00729339 5.27748e-20)
(-2.33001 -0.0112969 0)
(-2.32245 -0.0152562 0)
(-2.3131 -0.019169 0)
(-2.30196 -0.0230326 0)
(-2.28903 -0.0268439 -4.39745e-20)
(-2.27429 -0.0305996 8.46719e-20)
(-2.25775 -0.0342962 4.02435e-20)
(-2.23939 -0.03793 -7.71519e-20)
(-2.21921 -0.0414968 -7.33001e-20)
(-2.19723 -0.0449926 -3.44182e-20)
(-2.17343 -0.0484128 0)
(-2.14784 -0.0517527 -6.13814e-20)
(-2.12045 -0.0550075 0)
(-2.09128 -0.058172 5.31404e-20)
(-2.06035 -0.0612404 2.41157e-20)
(-2.02767 -0.0642075 0)
(-1.99327 -0.0670679 -4.03591e-20)
(-1.95718 -0.069817 -1.76029e-20)
(-1.91942 -0.0724502 0)
(-1.88003 -0.0749635 -1.3977e-20)
(-1.83904 -0.0773529 3.34756e-20)
(-1.79651 -0.079615 0)
(-1.75246 -0.0817459 0)
(-1.70695 -0.083741 0)
(-1.66003 -0.0855955 0)
(-1.61176 -0.0873063 -5.33413e-22)
(-1.56218 -0.088871 -6.25437e-21)
(-1.51138 -0.0902887 0)
(-1.4594 -0.091559 0)
(-1.40632 -0.0926813 0)
(-1.35219 -0.0936533 0)
(-1.29711 -0.0944727 0)
(-1.24113 -0.0951398 0)
(-1.18434 -0.0956574 -4.00236e-20)
(-1.12682 -0.0960314 -1.09565e-21)
(-1.06863 -0.0962625 0)
(-1.00986 -0.0963472 0)
(-0.950584 -0.0962885 -5.83723e-20)
(-0.89089 -0.0960961 0)
(-0.830848 -0.0957781 6.9185e-20)
(-0.770534 -0.0953317 7.29036e-20)
(-0.710029 -0.0947564 0)
(-0.649411 -0.094072 0)
(-0.588744 -0.0932881 -8.84308e-20)
(-0.528096 -0.092392 -1.84186e-19)
(-0.467544 -0.0913988 0)
(-0.407144 -0.0903349 0)
(-0.346956 -0.0891834 0)
(-0.287033 -0.0879584 -1.12031e-19)
(-0.227427 -0.0866954 1.16674e-19)
(-0.168203 -0.0853512 0)
(-0.109306 -0.083983 2.4965e-19)
(-0.0509638 -0.082614 1.28357e-19)
(0.00707974 -0.0811725 -2.66803e-19)
(0.0644903 -0.079704 0)
(0.121151 -0.0782267 0)
(0.177271 -0.0766444 -2.83109e-19)
(0.232649 -0.0750104 -1.44895e-19)
(0.287337 -0.0734683 0)
(0.341389 -0.0717771 0)
(0.394845 -0.0699535 0)
(0.447831 -0.0682531 0)
(0.500236 -0.0666718 -3.11164e-19)
(0.552085 -0.0652012 0)
(0.603415 -0.0638259 0)
(0.654266 -0.0625297 0)
(0.704672 -0.0612915 0)
(0.754652 -0.0600804 0)
(0.804201 -0.0588445 0)
(0.853254 -0.057491 -3.38305e-19)
(0.901698 -0.0558588 0)
(0.949176 -0.0536173 0)
(0.995515 -0.0502299 -6.98397e-19)
(1.03891 -0.0443205 3.52492e-19)
(1.08271 -0.0342506 -3.58836e-19)
(1.11359 -0.014255 3.64209e-19)
(-0.00773135 -0.0113282 0)
(-0.0205302 0.0173867 7.50708e-19)
(-0.0351394 0.0417146 0)
(-0.0510064 0.0623247 1.62639e-19)
(-0.0674734 0.0802593 0)
(-0.0842874 0.0958683 0)
(-0.101539 0.109307 -1.14198e-19)
(-0.119339 0.120721 0)
(-0.13775 0.130313 0)
(-0.156784 0.138328 0)
(-0.176404 0.14501 0)
(-0.196552 0.15057 0)
(-0.21716 0.155174 3.34033e-19)
(-0.238163 0.158954 1.59358e-19)
(-0.259506 0.162013 -1.52189e-19)
(-0.281143 0.164437 0)
(-0.303036 0.166301 0)
(-0.325153 0.167675 0)
(-0.347471 0.168621 0)
(-0.369967 0.169199 0)
(-0.392626 0.169463 1.18325e-19)
(-0.415435 0.169465 1.13959e-19)
(-0.438382 0.16925 -1.09887e-19)
(-0.46146 0.168859 1.06086e-19)
(-0.484662 0.168331 0)
(-0.507986 0.167696 0)
(-0.531429 0.166983 9.60965e-20)
(-0.554991 0.166216 0)
(-0.578672 0.165416 0)
(-0.602475 0.1646 8.78367e-20)
(-0.626402 0.163781 8.53733e-20)
(-0.650458 0.162969 8.30644e-20)
(-0.674647 0.162174 0)
(-0.698975 0.161402 0)
(-0.723446 0.160657 -7.68466e-20)
(-0.748066 0.159941 0)
(-0.772841 0.159256 0)
(-0.797775 0.158602 7.15563e-20)
(-0.822874 0.157979 -6.98484e-20)
(-0.84814 0.157385 6.83017e-20)
(-0.873578 0.156819 0)
(-0.899188 0.156278 0)
(-0.924971 0.155761 1.28196e-19)
(-0.950924 0.155263 0)
(-0.977042 0.154779 1.2307e-19)
(-1.00332 0.154302 1.81036e-19)
(-1.02975 0.153824 -1.77536e-19)
(-1.05634 0.153335 1.16062e-19)
(-1.08306 0.152829 0)
(-1.10993 0.152297 0)
(-1.13692 0.151733 1.09749e-19)
(-1.16404 0.15113 5.39583e-20)
(-1.19127 0.150482 0)
(-1.21861 0.149784 0)
(-1.24603 0.14903 5.11831e-20)
(-1.27353 0.148215 1.00483e-19)
(-1.3011 0.147335 0)
(-1.32873 0.146386 -9.72865e-20)
(-1.35638 0.145363 9.5544e-20)
(-1.38406 0.144265 -9.39861e-20)
(-1.41174 0.143086 0)
(-1.4394 0.141825 0)
(-1.46703 0.140478 0)
(-1.4946 0.139044 0)
(-1.52209 0.137519 0)