# vtk DataFile Version 2.0
track0
ASCII
DATASET POLYDATA
POINTS 11900 float
-0.0205 0.001 1e-05
-0.0202034 0.0010001 1e-05
-0.0199069 0.00100035 1e-05
-0.0196103 0.00100072 1e-05
-0.0193137 0.0010012 1e-05
-0.0190172 0.00100179 1e-05
-0.0187132 0.00100302 1e-05
-0.0184093 0.00100345 1e-05
-0.0181054 0.00100385 1e-05
-0.0178015 0.00100422 1e-05
-0.0174976 0.00100457 1e-05
-0.0172058 0.00100548 1e-05
-0.016914 0.00100571 1e-05
-0.0166222 0.00100595 1e-05
-0.0163305 0.00100621 1e-05
-0.0160387 0.00100649 1e-05
-0.0157586 0.00100728 1e-05
-0.0154784 0.00100761 1e-05
-0.0151983 0.00100798 1e-05
-0.0149182 0.00100839 1e-05
-0.0146381 0.00100886 1e-05
-0.0143692 0.00100974 1e-05
-0.0141002 0.00101029 1e-05
-0.0138313 0.00101088 1e-05
-0.0135624 0.00101152 1e-05
-0.0132934 0.0010122 1e-05
-0.0130353 0.00101317 1e-05
-0.0127771 0.00101391 1e-05
-0.0125189 0.00101469 1e-05
-0.0122607 0.00101551 1e-05
-0.0120025 0.00101635 1e-05
-0.0117547 0.00101738 1e-05
-0.0115068 0.00101826 1e-05
-0.0112589 0.00101917 1e-05
-0.0110111 0.00102011 1e-05
-0.0107632 0.00102107 1e-05
-0.0105252 0.00102213 1e-05
-0.0102873 0.0010231 1e-05
-0.0100493 0.0010241 1e-05
-0.00981133 0.00102511 1e-05
-0.00957337 0.00102614 1e-05
-0.00934491 0.00102721 1e-05
-0.00911645 0.00102824 1e-05
-0.00888799 0.00102928 1e-05
-0.00865954 0.00103033 1e-05
-0.00843108 0.0010314 1e-05
-0.00821175 0.00103246 1e-05
-0.00799242 0.00103351 1e-05
-0.00777309 0.00103457 1e-05
-0.00755376 0.00103564 1e-05
-0.00733443 0.00103672 1e-05
-0.00719279 0.00103742 1e-05
-0.00705114 0.00103813 1e-05
-0.0069095 0.00103884 1e-05
-0.00676785 0.00103955 1e-05
-0.00662729 0.00104025 1e-05
-0.00655815 0.0010406 1e-05
-0.00648901 0.00104095 1e-05
-0.00641988 0.0010413 1e-05
-0.00635074 0.00104165 1e-05
-0.0062816 0.00104201 1e-05
-0.00607944 0.00104303 1e-05
-0.00587729 0.00104407 1e-05
-0.00567514 0.0010451 1e-05
-0.00547298 0.00104615 1e-05
-0.00527083 0.00104719 1e-05
-0.00507675 0.00104819 1e-05
-0.00488267 0.0010492 1e-05
-0.0046886 0.0010502 1e-05
-0.00449452 0.00105121 1e-05
-0.00430044 0.00105223 1e-05
-0.00411412 0.00105319 1e-05
-0.0039278 0.00105416 1e-05
-0.00374147 0.00105514 1e-05
-0.00355515 0.00105611 1e-05
-0.00336883 0.00105709 1e-05
-0.00318995 0.00105801 1e-05
-0.00301107 0.00105895 1e-05
-0.00283219 0.00105988 1e-05
-0.00265331 0.00106082 1e-05
-0.00247443 0.00106175 1e-05
-0.0023027 0.00106264 1e-05
-0.00213097 0.00106354 1e-05
-0.00195924 0.00106443 1e-05
-0.0017875 0.00106533 1e-05
-0.00161577 0.00106622 1e-05
-0.0014509 0.00106707 1e-05
-0.00128603 0.00106792 1e-05
-0.00112116 0.00106877 1e-05
-0.000956289 0.00106961 1e-05
-0.000791418 0.00107045 1e-05
-0.000633135 0.00107124 1e-05
-0.000474851 0.00107202 1e-05
-0.000316567 0.00107279 1e-05
-0.000158283 0.00107354 1e-05
0 0.00107428 1e-05
0.000105677 0.00107475 1e-05
0.000211355 0.00107522 1e-05
0.000317032 0.00107568 1e-05
0.00042271 0.00107613 1e-05
0.000528387 0.00107656 1e-05
0.000634886 0.00107697 1e-05
0.000741385 0.00107738 1e-05
0.000847885 0.00107778 1e-05
0.000954384 0.00107817 1e-05
0.00106088 0.00107855 1e-05
0.00116821 0.00107891 1e-05
0.00127554 0.00107927 1e-05
0.00138286 0.00107962 1e-05
0.00149019 0.00107995 1e-05
0.00159752 0.00108028 1e-05
0.00170568 0.00108058 1e-05
0.00181384 0.00108089 1e-05
0.001922 0.00108119 1e-05
0.00203016 0.00108148 1e-05
0.00213833 0.00108176 1e-05
0.00224733 0.00108201 1e-05
0.00235633 0.00108228 1e-05
0.00246533 0.00108253 1e-05
0.00257434 0.00108278 1e-05
0.00268334 0.00108302 1e-05
0.00279319 0.00108324 1e-05
0.00290304 0.00108347 1e-05
0.00301289 0.00108369 1e-05
0.00312274 0.0010839 1e-05
0.00323259 0.00108411 1e-05
0.00334329 0.0010843 1e-05
0.003454 0.0010845 1e-05
0.0035647 0.00108469 1e-05
0.0036754 0.00108488 1e-05
0.00378611 0.00108506 1e-05
0.00389767 0.00108523 1e-05
0.00400924 0.0010854 1e-05
0.0041208 0.00108557 1e-05
0.00423237 0.00108573 1e-05
0.00434393 0.00108589 1e-05
0.00445636 0.00108604 1e-05
0.00456879 0.00108619 1e-05
0.00468123 0.00108633 1e-05
0.00479366 0.00108647 1e-05
0.00490609 0.0010866 1e-05
0.0050194 0.00108673 1e-05
0.0051327 0.00108686 1e-05
0.00524601 0.00108698 1e-05
0.00535932 0.0010871 1e-05
0.00547262 0.00108721 1e-05
0.00555865 0.00108729 1e-05
0.00564467 0.00108737 1e-05
0.00573069 0.00108744 1e-05
0.00581672 0.00108752 1e-05
0.00589954 0.00108759 1e-05
0.00592834 0.00108761 1e-05
0.00595715 0.00108763 1e-05
0.00598595 0.00108765 1e-05
0.00601475 0.00108768 1e-05
0.00604356 0.0010877 1e-05
0.00615863 0.00108778 1e-05
0.00627371 0.00108786 1e-05
0.00638878 0.00108794 1e-05
0.00650386 0.00108801 1e-05
0.00661893 0.00108808 1e-05
0.0067349 0.00108814 1e-05
0.00685087 0.00108819 1e-05
0.00696684 0.00108825 1e-05
0.00708281 0.00108829 1e-05
0.00719878 0.00108833 1e-05
0.00731565 0.00108837 1e-05
0.00743252 0.0010884 1e-05
0.00754939 0.00108843 1e-05
0.00766626 0.00108845 1e-05
0.00778313 0.00108846 1e-05
0.00790091 0.00108847 1e-05
0.00801869 0.00108847 1e-05
0.00813647 0.00108847 1e-05
0.00825425 0.00108847 1e-05
0.00837203 0.00108846 1e-05
0.00849073 0.00108843 1e-05
0.00860942 0.00108841 1e-05
0.00872812 0.00108838 1e-05
0.00884682 0.00108834 1e-05
0.00896551 0.0010883 1e-05
0.00908513 0.00108824 1e-05
0.00920475 0.00108819 1e-05
0.00932437 0.00108813 1e-05
0.00944398 0.00108806 1e-05
0.0095636 0.00108799 1e-05
0.00968415 0.0010879 1e-05
0.0098047 0.00108781 1e-05
0.00992525 0.00108772 1e-05
0.0100458 0.00108762 1e-05
0.0101663 0.00108751 1e-05
0.0102878 0.00108738 1e-05
0.0104093 0.00108726 1e-05
0.0105308 0.00108713 1e-05
0.0106523 0.001087 1e-05
0.0107738 0.00108686 1e-05
0.0108962 0.00108669 1e-05
0.0110186 0.00108653 1e-05
0.0111411 0.00108637 1e-05
0.0112635 0.0010862 1e-05
0.0113859 0.00108602 1e-05
0.0115093 0.00108581 1e-05
0.0116327 0.00108561 1e-05
0.0117561 0.00108541 1e-05
0.0118795 0.00108519 1e-05
0.0120028 0.00108498 1e-05
0.0121272 0.00108472 1e-05
0.0122515 0.00108448 1e-05
0.0123759 0.00108424 1e-05
0.0125002 0.00108399 1e-05
0.0126245 0.00108373 1e-05
0.0127498 0.00108343 1e-05
0.0128752 0.00108315 1e-05
0.0130005 0.00108286 1e-05
0.0131258 0.00108256 1e-05
0.0132511 0.00108226 1e-05
0.0133774 0.00108192 1e-05
0.0135036 0.00108159 1e-05
0.0136299 0.00108125 1e-05
0.0137562 0.00108091 1e-05
0.0138825 0.00108056 1e-05
0.0140098 0.00108017 1e-05
0.014137 0.0010798 1e-05
0.0142643 0.00107941 1e-05
0.0143915 0.00107902 1e-05
0.0145188 0.00107862 1e-05
0.0146471 0.00107819 1e-05
0.0147753 0.00107776 1e-05
0.0149036 0.00107733 1e-05
0.0150318 0.00107689 1e-05
0.0151601 0.00107644 1e-05
0.0152893 0.00107595 1e-05
0.0154186 0.00107548 1e-05
0.0155478 0.00107499 1e-05
0.0156771 0.0010745 1e-05
0.0158063 0.00107399 1e-05
0.0159366 0.00107346 1e-05
0.0160668 0.00107293 1e-05
0.0161971 0.00107239 1e-05
0.0163274 0.00107184 1e-05
0.0164576 0.00107128 1e-05
0.0165889 0.00107069 1e-05
0.0167201 0.00107011 1e-05
0.0168514 0.00106951 1e-05
0.0169827 0.00106891 1e-05
0.0171139 0.00106829 1e-05
0.0172462 0.00106765 1e-05
0.0173785 0.00106701 1e-05
0.0175108 0.00106636 1e-05
0.0176431 0.0010657 1e-05
0.0177754 0.00106502 1e-05
0.0179087 0.00106433 1e-05
0.018042 0.00106363 1e-05
0.0181753 0.00106292 1e-05
0.0183087 0.0010622 1e-05
0.018442 0.00106147 1e-05
0.0185763 0.00106072 1e-05
0.0187107 0.00105996 1e-05
0.018845 0.00105919 1e-05
0.0189794 0.00105841 1e-05
0.0191137 0.00105762 1e-05
0.0192491 0.00105682 1e-05
0.0193845 0.00105601 1e-05
0.0195199 0.00105517 1e-05
0.0196553 0.00105433 1e-05
0.0197907 0.00105348 1e-05
0.0199272 0.00105263 1e-05
0.0200636 0.00105175 1e-05
0.0202001 0.00105085 1e-05
0.0203365 0.00104995 1e-05
0.020473 0.00104904 1e-05
0.0206105 0.00104813 1e-05
0.020748 0.00104719 1e-05
0.0208855 0.00104623 1e-05
0.021023 0.00104527 1e-05
0.0211606 0.0010443 1e-05
0.0212991 0.00104333 1e-05
0.0214377 0.00104233 1e-05
0.0215763 0.00104131 1e-05
0.0217149 0.00104028 1e-05
0.0218535 0.00103925 1e-05
0.0219931 0.00103822 1e-05
0.0221328 0.00103716 1e-05
0.0222724 0.00103608 1e-05
0.0224121 0.00103498 1e-05
0.0225517 0.00103389 1e-05
0.0226925 0.00103281 1e-05
0.0228332 0.00103169 1e-05
0.022974 0.00103054 1e-05
0.0231147 0.00102938 1e-05
0.0232555 0.00102824 1e-05
0.0233973 0.00102709 1e-05
0.0235391 0.00102591 1e-05
0.023681 0.0010247 1e-05
0.0238228 0.00102348 1e-05
0.0239647 0.00102227 1e-05
0.0241076 0.00102106 1e-05
0.0242505 0.00101982 1e-05
0.0243935 0.00101855 1e-05
0.0245364 0.00101727 1e-05
0.0246794 0.001016 1e-05
0.0248234 0.00101473 1e-05
0.0249675 0.00101343 1e-05
0.0251115 0.00101209 1e-05
0.0252556 0.00101075 1e-05
0.0253996 0.00100941 1e-05
0.0255448 0.00100809 1e-05
0.02569 0.00100672 1e-05
0.0258351 0.00100532 1e-05
0.0259803 0.00100391 1e-05
0.0261255 0.00100252 1e-05
0.0262718 0.00100113 1e-05
0.0264181 0.000999705 1e-05
0.0265644 0.000998243 1e-05
0.0267107 0.000996771 1e-05
0.026857 0.000995314 1e-05
0.0270044 0.000993862 1e-05
0.0271519 0.000992372 1e-05
0.0272993 0.000990846 1e-05
0.0274468 0.000989311 1e-05
0.0275942 0.000987791 1e-05
0.0277428 0.000986275 1e-05
0.0278914 0.000984722 1e-05
0.0280399 0.000983134 1e-05
0.0281885 0.000981538 1e-05
0.0283371 0.000979954 1e-05
0.0284869 0.000978373 1e-05
0.0286366 0.000976755 1e-05
0.0287863 0.000975107 1e-05
0.0289361 0.000973449 1e-05
0.0290858 0.0009718 1e-05
0.0292367 0.000970153 1e-05
0.0293876 0.000968469 1e-05
0.0295385 0.000966759 1e-05
0.0296894 0.000965039 1e-05
0.0298403 0.000963324 1e-05
0.0299924 0.00096161 1e-05
0.0301445 0.000959859 1e-05
0.0302966 0.000958085 1e-05
0.0304486 0.000956301 1e-05
0.0306007 0.000954519 1e-05
0.030754 0.000952736 1e-05
0.0309072 0.000950916 1e-05
0.0310605 0.000949077 1e-05
0.0312138 0.000947229 1e-05
0.031367 0.000945377 1e-05
0.0315215 0.000943524 1e-05
0.0316759 0.000941634 1e-05
0.0318304 0.000939728 1e-05
0.0319848 0.000937813 1e-05
0.0321393 0.000935891 1e-05
0.0322949 0.000933965 1e-05
0.0324506 0.000932002 1e-05
0.0326062 0.000930029 1e-05
0.0327619 0.000928044 1e-05
0.0329175 0.00092605 1e-05
0.0330744 0.000924049 1e-05
0.0332313 0.000922015 1e-05
0.0333881 0.00091997 1e-05
[...]
POINT_DATA 11900
 FIELD attributes 1
U 3 11900 float
9.9991 	0.00338334 	0 9.99878 	0.00857222 	0 9.99916 	0.0123325 	0 9.99953 	0.0160831 	0 9.99991 	0.0198239 	0 10.003 	0.0406816 	0 10.0034 	0.0140573 	0 10.0062 	0.0131914 	0 10.009 	0.0123218 	0 10.0118 	0.0114484 	0 10.0151 	0.0312074 	0 10.0176 	0.00791697 	0 10.0202 	0.0083909 	0 10.0228 	0.00886802 	0 10.0253 	0.00934835 	0 10.0255 	0.0285357 	0 10.0288 	0.0116151 	0 10.0301 	0.0132627 	0 10.0315 	0.0149209 	0 10.0329 	0.0165899 	0 10.0304 	0.0328079 	0 10.0348 	0.0205532 	0 10.0356 	0.0221561 	0 10.0365 	0.0237681 	0 10.0374 	0.0253892 	0 10.0331 	0.0376088 	0 10.0383 	0.0290411 	0 10.0388 	0.0303242 	0 10.0392 	0.0316136 	0 10.0397 	0.0329091 	0 10.0344 	0.041499 	0 10.0398 	0.0358708 	0 10.0399 	0.0368738 	0 10.0401 	0.0378807 	0 10.0402 	0.0388916 	0 10.0346 	0.04459 	0 10.0397 	0.0411679 	0 10.0395 	0.0419369 	0 10.0394 	0.0427083 	0 10.0392 	0.0434822 	0 10.0342 	0.0470005 	0 10.0384 	0.0451476 	0 10.038 	0.0457195 	0 10.0377 	0.0462929 	0 10.0374 	0.0468678 	0 10.0336 	0.0488084 	0 10.0363 	0.0480235 	0 10.0358 	0.0484342 	0 10.0354 	0.0488457 	0 10.0349 	0.0492581 	0 10.0329 	0.0501025 	0 10.034 	0.0499169 	0 10.0336 	0.0501064 	0 10.0332 	0.050296 	0 10.0328 	0.0504859 	0 10.0324 	0.0506745 	0 10.0323 	0.0507654 	0 10.0321 	0.0508563 	0 10.0319 	0.0509473 	0 10.0317 	0.0510383 	0 10.0314 	0.0510317 	0 10.0309 	0.0512823 	0 10.0303 	0.0514568 	0 10.0296 	0.0516316 	0 10.029 	0.0518066 	0 10.0278 	0.0516541 	0 10.0278 	0.052007 	0 10.0272 	0.0521024 	0 10.0265 	0.0521978 	0 10.0258 	0.0522934 	0 10.0241 	0.0519088 	0 10.0248 	0.0523263 	0 10.0241 	0.0523639 	0 10.0234 	0.0524015 	0 10.0227 	0.0524392 	0 10.0204 	0.0519012 	0 10.0218 	0.052363 	0 10.0211 	0.0523691 	0 10.0205 	0.0523752 	0 10.0198 	0.0523813 	0 10.0169 	0.0517555 	0 10.0193 	0.0522369 	0 10.0188 	0.0522212 	0 10.0183 	0.0522054 	0 10.0178 	0.0521897 	0 10.0143 	0.051504 	0 10.0177 	0.0517918 	0 10.0175 	0.0515097 	0 10.0172 	0.0512276 	0 10.017 	0.0509453 	0 10.013 	0.0499397 	0 10.0176 	0.0496262 	0 10.0178 	0.0486141 	0 10.0179 	0.0476016 	0 10.0181 	0.0465887 	0 10.0135 	0.0449274 	0 10.0186 	0.0446111 	-2.42848e-21 10.0184 	0.0433446 	-6.49266e-21 10.0182 	0.0420775 	-1.05575e-20 10.018 	0.0408101 	-1.46229e-20 10.013 	0.03887 	-1.89677e-20 10.0177 	0.0388505 	-2.94255e-20 10.0172 	0.0377046 	-2.93162e-20 10.0166 	0.036558 	-2.92033e-20 10.0161 	0.0354109 	-2.9087e-20 10.011 	0.0333867 	-1.79505e-20 10.0153 	0.0336149 	-1.91299e-20 10.0146 	0.0325222 	-2.16645e-20 10.0139 	0.0314288 	-2.42004e-20 10.0132 	0.0303347 	-2.67379e-20 10.0081 	0.028167 	-2.9729e-20 10.0119 	0.0285944 	-3.8882e-20 10.011 	0.0276455 	-3.87711e-20 10.0101 	0.0266958 	-3.86578e-20 10.0092 	0.0257455 	-3.85422e-20 10.0043 	0.0236283 	-3.10987e-20 10.0074 	0.0241971 	-2.26282e-20 10.0063 	0.0234628 	-1.36522e-20 10.0051 	0.0227279 	-4.67661e-21 10.0039 	0.0219923 	4.29862e-21 9.99916 	0.0201209 	1.33312e-20 10.0016 	0.0206862 	8.62301e-21 10.0002 	0.0201133 	5.41039e-21 9.9988 	0.0195399 	2.19789e-21 9.99738 	0.018966 	-1.01449e-21 9.99285 	0.0174016 	-1.41707e-21 9.9946 	0.0178372 	3.72499e-21 9.99293 	0.0173558 	4.30969e-21 9.99127 	0.016874 	4.89232e-21 9.9896 	0.0163919 	5.47287e-21 9.98535 	0.0151359 	7.51197e-22 9.98629 	0.0153812 	1.35582e-20 9.98436 	0.014949 	1.62798e-20 9.98242 	0.0145165 	1.8998e-20 9.98048 	0.0140837 	2.17127e-20 9.97654 	0.0131161 	1.50998e-20 9.97658 	0.0131582 	1.29106e-20 9.97434 	0.0127496 	9.61537e-21 9.97211 	0.0123407 	6.32029e-21 9.96987 	0.0119316 	3.02539e-21 9.96627 	0.0112135 	-5.53201e-22 9.96528 	0.0110653 	4.45314e-21 9.96272 	0.0106626 	9.29424e-21 9.96016 	0.0102597 	1.41356e-20 9.9576 	0.00985652 	1.89772e-20 9.95441 	0.00933646 	2.3699e-20 9.95294 	0.00912476 	2.02465e-20 9.95075 	0.00881754 	1.66775e-20 9.94855 	0.0085102 	1.31086e-20 9.94636 	0.00820274 	9.53993e-21 9.94424 	0.00790662 	6.10433e-21 9.9435 	0.0078028 	4.98586e-21 9.94275 	0.00769897 	3.86752e-21 9.942 	0.00759513 	2.74931e-21 9.94126 	0.00749127 	1.63122e-21 9.93923 	0.00738337 	7.16035e-23 9.93713 	0.00697265 	-5.51706e-21 9.9338 	0.00655124 	-1.06683e-20 9.93046 	0.00612962 	-1.58215e-20 9.92712 	0.0057078 	-2.09767e-20 9.91709 	0.00519841 	-2.39101e-20 9.91976 	0.00487422 	-1.43576e-20 9.91601 	0.00443916 	-4.8038e-21 9.91226 	0.00400391 	4.75e-21 9.90851 	0.00356846 	1.43038e-20 9.89221 	0.0028762 	2.31629e-20 9.90003 	0.00270692 	3.11218e-20 9.89585 	0.00225594 	3.54354e-20 9.89166 	0.00180476 	3.97505e-20 9.88747 	0.00135339 	4.40672e-20 9.86451 	0.000419507 	4.18146e-20 9.87775 	0.000445645 	3.68712e-20 9.87312 	-2.20674e-05 	3.19709e-20 9.86848 	-0.000489978 	2.70697e-20 9.86383 	-0.000958088 	2.21676e-20 9.83397 	-0.00216262 	1.93417e-20 9.85277 	-0.00192478 	9.72288e-21 9.84767 	-0.00240856 	-1.61477e-21 9.84256 	-0.00289254 	-1.29522e-20 9.83745 	-0.00337674 	-2.42894e-20 9.80062 	-0.0048548 	-3.13793e-20 9.82497 	-0.00440987 	-2.05591e-20 9.81939 	-0.00490864 	-1.99665e-20 9.8138 	-0.00540764 	-1.937e-20 9.80821 	-0.00590688 	-1.87696e-20 9.76451 	-0.00764061 	-3.15846e-20 9.79426 	-0.00701002 	-2.67956e-20 9.78819 	-0.00752286 	-1.93173e-20 9.78212 	-0.00803596 	-1.18384e-20 9.77604 	-0.00854933 	-4.359e-21 9.72573 	-0.010505 	0 9.76058 	-0.00972267 	-2.26898e-21 9.75404 	-0.0102489 	-6.23281e-21 9.74748 	-0.0107753 	-1.01963e-20 9.74092 	-0.0113021 	-1.41595e-20 9.68443 	-0.0134347 	-1.41347e-20 9.72395 	-0.0125429 	-1.61314e-20 9.71693 	-0.013082 	-1.60421e-20 9.7099 	-0.0136213 	-1.59521e-20 9.70287 	-0.014161 	-1.58614e-20 9.64075 	-0.0164178 	-1.49066e-20 9.68439 	-0.0154641 	-1.38549e-20 9.67691 	-0.0160157 	-9.75688e-21 9.66943 	-0.0165676 	-5.65855e-21 9.66193 	-0.01712 	-1.55988e-21 9.59489 	-0.0194437 	-1.71047e-21 9.64201 	-0.0184784 	-2.62563e-21 9.63409 	-0.0190423 	-9.85287e-21 9.62616 	-0.0196067 	-1.70794e-20 9.61822 	-0.0201715 	-2.43053e-20 9.54704 	-0.022503 	-2.64683e-20 9.59692 	-0.0215769 	1.00915e-22 9.58857 	-0.0221531 	8.38274e-22 9.58022 	-0.0227298 	1.58046e-21 9.57185 	-0.0233069 	2.3275e-21 9.49741 	-0.0255873 	-2.56231e-20 9.54929 	-0.0247502 	-2.37566e-20 9.54054 	-0.0253385 	-1.62334e-20 9.53179 	-0.0259274 	-8.70949e-21 9.52302 	-0.0265168 	-1.18487e-21 9.44621 	-0.0286885 	0 9.49932 	-0.0279882 	0 9.4902 	-0.0285885 	0 9.48106 	-0.0291894 	0 9.47191 	-0.0297908 	0 9.39365 	-0.0317989 	0 9.44723 	-0.0312805 	3.74494e-22 9.43775 	-0.0318924 	8.16267e-21 9.42827 	-0.0325048 	1.595e-20 9.41849 	-0.0331226 	2.37366e-20 9.33994 	-0.0349113 	3.15435e-20 9.39096 	-0.0346497 	2.34941e-20 9.38346 	-0.0352391 	3.04324e-20 9.37365 	-0.0358626 	3.79582e-20 9.35822 	-0.0365607 	4.59712e-20 9.28528 	-0.0380184 	5.90155e-20 9.33065 	-0.0380591 	4.53771e-20 9.32758 	-0.0386171 	3.63365e-20 9.31747 	-0.0392509 	2.79617e-20 9.29725 	-0.0399741 	2.19819e-20 9.22987 	-0.041113 	2.72149e-20 9.26975 	-0.0414406 	2.16267e-20 9.27038 	-0.042014 	1.14741e-20 9.25999 	-0.0426568 	4.10824e-23 9.23586 	-0.0433514 	-8.69458e-21 9.1739 	-0.0441871 	-1.00016e-20 9.20854 	-0.0447831 	2.72805e-20 9.21214 	-0.0454161 	3.9556e-20 9.2015 	-0.0460666 	4.03715e-20 9.17428 	-0.0466814 	2.75348e-20 9.11754 	-0.0472321 	-9.62728e-21 9.14724 	-0.0480759 	-8.09813e-21 9.15312 	-0.0488096 	-5.41019e-21 9.14226 	-0.0494662 	-1.90741e-21 9.11276 	-0.0499546 	0 9.06097 	-0.0502415 	0 9.08606 	-0.0513111 	0 9.0936 	-0.0521829 	0 9.08254 	-0.0528447 	0 9.05148 	-0.0531653 	0 9.00433 	-0.0532117 	0 9.02519 	-0.0544846 	0 9.03382 	-0.0555269 	0 9.02259 	-0.0561927 	0 8.99062 	-0.0563102 	0 8.94778 	-0.05614 	0 8.96477 	-0.0575923 	0 8.97402 	-0.0588322 	1.39808e-21 8.96263 	-0.0595006 	6.53733e-21 8.93033 	-0.0593854 	1.80664e-20 8.89145 	-0.0590233 	3.16079e-20 8.90494 	-0.0606307 	1.22168e-19 8.91439 	-0.0620889 	1.97872e-19 8.90288 	-0.0627586 	1.95816e-19 8.87072 	-0.062388 	1.15684e-19 8.83544 	-0.0618587 	2.36618e-20 8.84582 	-0.063597 	-2.25014e-20 8.85514 	-0.0652885 	-6.6834e-20 8.84352 	-0.0659584 	-7.28131e-20 8.81191 	-0.0653164 	-4.05699e-20 8.77987 	-0.0646446 	-7.46866e-21 8.78748 	-0.0664903 	-5.66291e-21 8.79503 	-0.068338 	-3.85488e-21 8.78314 	-0.06896 	6.76475e-21 8.75398 	-0.0681704 	1.19617e-20 8.72483 	-0.0673802 	1.71598e-20 8.73002 	-0.0693107 	1.15037e-20 8.73513 	-0.0712433 	5.84411e-21 8.72358 	-0.0718356 	1.45002e-20 8.697 	-0.0709512 	3.88813e-20 8.67043 	-0.0700662 	6.32637e-20 8.6735 	-0.0720602 	1.05894e-19 8.67648 	-0.0740564 	1.48521e-19 8.66532 	-0.0746187 	1.38229e-19 8.64102 	-0.0736618 	8.01981e-20 8.61674 	-0.0727041 	2.2165e-20 8.61796 	-0.0747421 	1.31387e-20 8.61911 	-0.0767821 	4.1154e-21 8.60838 	-0.0773149 	-5.18915e-21 8.58609 	-0.0763065 	-1.50173e-20 8.56383 	-0.0752972 	-2.48465e-20 8.56346 	-0.0773612 	-1.4755e-20 8.56301 	-0.0794273 	-4.66147e-21 8.55276 	-0.0799314 	3.13379e-21 8.53223 	-0.0788908 	1.05458e-20 8.51174 	-0.0778493 	1.79591e-20 8.51 	-0.0799236 	1.0162e-20 8.50819 	-0.082 	2.3618e-21 8.49845 	-0.0824767 	6.57097e-21 8.47947 	-0.0814217 	1.40597e-20 8.46053 	-0.0803658 	2.15462e-20 8.45762 	-0.0824368 	4.7349e-20 8.45463 	-0.0845098 	7.31575e-20 8.44542 	-0.0849607 	7.06411e-20 8.42781 	-0.0839071 	3.58355e-20 8.41022 	-0.0828527 	1.02605e-21 8.40632 	-0.0849089 	4.31889e-21 8.40233 	-0.086967 	7.61972e-21 8.39367 	-0.0873941 	-9.84138e-21 8.37724 	-0.0863558 	-2.45659e-20 8.36085 	-0.0853167 	-3.92898e-20 8.35609 	-0.0873486 	-1.21617e-19 8.3509 	-0.0892272 	-1.95624e-19 8.34228 	-0.0896081 	-1.89273e-19 8.32778 	-0.0887763 	-1.13111e-19 8.31244 	-0.0877643 	-2.66039e-20 8.30695 	-0.0897646 	-1.6321e-20 8.30072 	-0.0913929 	-6.66719e-21 8.29222 	-0.0917786 	8.94392e-22 8.27941 	-0.0911773 	1.24604e-20 8.26499 	-0.090202 	2.55434e-20 8.25888 	-0.0921653 	4.37526e-20 8.2519 	-0.0935465 	5.19313e-20 8.24352 	-0.0939385 	4.30939e-20 8.23212 	-0.0935678 	2.36096e-20 8.21851 	-0.0926373 	-3.68136e-21 8.21187 	-0.0945601 	-7.21081e-20 8.20438 	-0.0957021 	-1.05691e-19 8.19611 	-0.0961024 	-1.06197e-19 8.18587 	-0.0959588 	-8.33333e-20 8.17299 	-0.0950799 	-2.88954e-20 8.1659 	-0.0969608 	-2.08776e-20 8.1581 	-0.0978747 	-1.97122e-20 8.14993 	-0.0982854 	-2.21122e-20 8.14065 	-0.0983626 	-2.66881e-20 8.12842 	-0.0975402 	-3.71226e-20 8.12093 	-0.0993792 	-8.90661e-20 8.11298 	-0.100078 	-9.65221e-20 8.10491 	-0.100501 	-9.3204e-20 8.09642 	-0.100791 	-8.42126e-20 8.08476 	-0.100028 	-3.06791e-20 8.07694 	-0.101826 	-2.28283e-20 8.06897 	-0.102325 	-1.5327e-20 8.06099 	-0.102762 	-7.84295e-21 8.05298 	-0.103199 	-3.59786e-22 8.042 	-0.102553 	6.65677e-21 8.03391 	-0.104172 	-2.28749e-22 8.02602 	-0.104625 	-2.3584e-21 8.01812 	-0.105077 	-4.48828e-21 8.01019 	-0.10553 	-6.6184e-21 8.0001 	-0.105125 	5.15284e-21 7.99189 	-0.106519 	1.72889e-20 7.98407 	-0.106988 	2.59507e-20 7.97624 	-0.107458 	3.46094e-20 7.96838 	-0.107928 	4.32652e-20 7.95904 	-0.107751 	3.70698e-20 7.95082 	-0.108936 	4.62883e-20 7.94307 	-0.109424 	4.79544e-20 7.9353 	-0.109913 	4.96189e-20 7.92751 	-0.110402 	5.12818e-20 7.91878 	-0.110442 	3.86727e-20 7.91065 	-0.111433 	3.41103e-20 7.90295 	-0.111942 	2.49524e-20 7.89524 	-0.11245 	1.57958e-20 7.88751 	-0.112959 	6.64041e-21 7.87927 	-0.113205 	-1.89095e-21 7.87131 	-0.114018 	0 7.86367 	-0.114547 	0 7.85601 	-0.115077 	0 7.84832 	-0.115607 	0 7.84047 	-0.116049 	0 7.8363 	-0.116439 	1.68655e-21 7.83226 	-0.116733 	3.71434e-21 7.82821 	-0.117027 	5.74228e-21 7.82415 	-0.117322 	7.77037e-21 7.82019 	-0.117609 	9.74914e-21 7.81644 	-0.11787 	1.14108e-20 7.81268 	-0.118131 	1.30723e-20 7.80892 	-0.118393 	1.47336e-20 7.80515 	-0.118654 	1.63949e-20 7.80194 	-0.118839 	1.80464e-20 7.79377 	-0.119488 	2.11661e-20 7.78586 	-0.120066 	2.20135e-20 7.77792 	-0.120646 	2.28646e-20 7.76996 	-0.121225 	2.37193e-20 7.76371 	-0.12157 	1.73515e-20 7.75495 	-0.122388 	1.11137e-20 7.74707 	-0.122992 	3.8376e-21 7.73916 	-0.123595 	-3.4385e-21 7.73122 	-0.1242 	-1.07146e-20 7.72615 	-0.124416 	-1.61949e-20 7.71681 	-0.1254 	-2.73358e-20 7.70894 	-0.126029 	-2.49664e-20 7.70105 	-0.126659 	-2.26014e-20 7.69313 	-0.127289 	-2.0241e-20 7.6892 	-0.127384 	-8.31478e-22 7.67928 	-0.128531 	-1.99295e-20 7.67142 	-0.129187 	-1.75938e-20 7.66354 	-0.129844 	-1.5264e-20 7.65563 	-0.130501 	-1.29401e-20 7.65281 	-0.130482 	1.41428e-20 7.64231 	-0.131787 	9.96132e-21 7.63445 	-0.132472 	-8.21183e-23 7.62657 	-0.133157 	-1.01249e-20 7.61891 	-0.133811 	-2.00206e-20 7.61691 	-0.133717 	-2.65287e-20 7.60622 	-0.13509 	-1.9485e-20 7.59798 	-0.135891 	-1.80873e-20 7.59009 	-0.136606 	-1.75382e-20 7.58359 	-0.137136 	-1.87134e-20 7.58147 	-0.137093 	-2.52558e-20 7.57082 	-0.138478 	-1.81596e-20 7.56196 	-0.13945 	-8.96352e-21 7.55405 	-0.140195 	1.37984e-21 7.54867 	-0.140609 	8.49714e-21 7.54642 	-0.140616 	1.16587e-20 7.53582 	-0.142015 	3.5085e-20 7.52632 	-0.143153 	4.90866e-20 7.51839 	-0.143929 	5.00186e-20 7.51411 	-0.144233 	3.46825e-20 7.51172 	-0.144291 	1.0932e-20 7.50115 	-0.145705 	7.46562e-21 7.49103 	-0.147006 	2.25783e-21 7.48306 	-0.147814 	-1.05915e-20 7.47984 	-0.148012 	-2.62419e-20 7.4773 	-0.148122 	-4.22993e-20 7.46676 	-0.149551 	-1.04178e-19 7.45615 	-0.150981 	-1.66055e-19 7.4485 	-0.151791 	-1.66128e-19 7.44582 	-0.151952 	-1.039e-19 7.44313 	-0.152113 	-4.16686e-20 7.4326 	-0.15356 	-2.52732e-20 7.42201 	-0.155008 	-8.87645e-21 7.41483 	-0.155845 	-2.11423e-21 7.412 	-0.156058 	-5.11483e-21 7.40915 	-0.15627 	-8.11531e-21 7.39863 	-0.157737 	-3.02613e-20 7.38804 	-0.159204 	-5.24058e-20 7.38133 	-0.160071 	-5.23335e-20 7.37833 	-0.160335 	-2.98501e-20 7.37532 	-0.160599 	-7.36554e-21 7.36479 	-0.162087 	-4.04448e-21 7.3542 	-0.163575 	-7.22011e-22 7.34793 	-0.164472 	0 7.34476 	-0.164788 	0 7.34158 	-0.165104 	0 7.33103 	-0.166614 	0 7.32051 	-0.168114 	4.10027e-25 7.31476 	-0.169014 	2.54781e-23 7.31124 	-0.169421 	-2.63583e-21 7.30788 	-0.169788 	-5.50886e-21 7.29731 	-0.171321 	-2.66681e-20 7.28793 	-0.172699 	-4.199e-20 7.28206 	-0.173638 	-4.07841e-20 7.27772 	-0.174235 	-2.44276e-20 7.27418 	-0.174654 	-8.90006e-23 7.26357 	-0.176212 	2.39415e-20 7.25531 	-0.177472 	3.50471e-20 7.24932 	-0.178449 	3.3787e-20 7.24416 	-0.179236 	2.29612e-20 7.24042 	-0.179706 	-3.79564e-21 7.22976 	-0.181289 	-7.41303e-22 7.2226 	-0.182437 	-2.10935e-23 7.21647 	-0.183453 	-1.00663e-23 7.2105 	-0.184426 	-4.87029e-22 7.20656 	-0.184947 	-6.094e-21 7.19598 	-0.186541 	0 7.18974 	-0.187597 	0 7.18347 	-0.188652 	0 7.17716 	-0.189707 	0 7.17255 	-0.190381 	4.25857e-21 7.16309 	-0.191858 	-1.73804e-21 7.1567 	-0.192953 	-7.59711e-21 7.15028 	-0.194048 	-1.3458e-20 7.14381 	-0.195143 	-1.93208e-20 7.13834 	-0.19601 	-2.25369e-20 7.12998 	-0.197373 	-4.09844e-20 7.12343 	-0.198507 	-3.90425e-20 7.11684 	-0.199642 	-3.70888e-20 7.11022 	-0.200777 	-3.51231e-20 7.1039 	-0.201835 	-2.6524e-20 7.09979 	-0.202524 	-2.14766e-20 7.0963 	-0.203135 	-1.94405e-20 7.09281 	-0.203747 	-1.74072e-20 7.0893 	-0.204359 	-1.53767e-20 7.08589 	-0.20495 	-1.34164e-20 7.08245 	-0.205517 	-1.12308e-20 7.079 	-0.206083 	-9.04675e-21 7.07554 	-0.206649 	-6.86418e-21 7.07206 	-0.207216 	-4.68313e-21 7.06866 	-0.207716 	2.31317e-23 7.06167 	-0.208996 	4.12299e-21 7.05443 	-0.210208 	9.00662e-21 7.04714 	-0.211421 	1.3888e-20 7.03981 	-0.212634 	1.87673e-20 7.03268 	-0.213645 	2.61193e-20 7.02591 	-0.215103 	2.27141e-20 7.01848 	-0.216355 	2.68312e-20 7.011 	-0.217608 	3.09415e-20 7.00347 	-0.218861 	3.50451e-20 6.99631 	-0.219777 	4.34618e-20 6.98977 	-0.22141 	1.45106e-20 6.98214 	-0.222702 	6.69484e-21 6.97446 	-0.223994 	-1.13715e-21 6.96678 	-0.225243 	-5.88648e-21 6.95952 	-0.22611 	1.68926e-20 6.95289 	-0.227817 	3.37352e-20 6.94535 	-0.229248 	3.52408e-20 6.93746 	-0.230579 	3.114e-20 6.92973 	-0.231728 	2.01346e-20 6.92225 	-0.23264 	1.24327e-22 6.91539 	-0.234379 	2.2129e-23 6.90808 	-0.235991 	1.48329e-21 6.89997 	-0.23736 	5.97205e-21 6.89218 	-0.23841 	1.0452e-20 6.88447 	-0.239367 	1.49285e-20 6.87737 	-0.241135 	9.74483e-21 6.87021 	-0.242904 	4.55833e-21 6.862 	-0.244283 	4.47737e-21 6.85408 	-0.245283 	1.14796e-20 6.84613 	-0.246284 	1.84815e-20 6.83879 	-0.248082 	2.98693e-20 6.83138 	-0.24988 	4.12554e-20 6.82356 	-0.251302 	4.09946e-20 6.8154 	-0.252344 	2.89791e-20 6.80719 	-0.253387 	1.69616e-20 6.7996 	-0.255214 	9.8481e-21 6.79194 	-0.257041 	2.73327e-21 6.7845 	-0.258505 	6.07915e-22 6.77608 	-0.259587 	8.91522e-21 6.76762 	-0.26067 	1.72194e-20 6.75976 	-0.262524 	-1.0444e-20 6.75194 	-0.264291 	-3.09367e-20 6.7444 	-0.265758 	-2.71522e-20 6.73611 	-0.267004 	-7.68365e-21 6.72737 	-0.268125 	2.06147e-20 6.71925 	-0.270006 	2.64362e-20 6.71133 	-0.271652 	2.66701e-20 6.70351 	-0.273151 	2.34e-20 6.69544 	-0.274588 	1.8337e-20 6.68643 	-0.275746 	5.02419e-21 6.67804 	-0.277647 	-1.65396e-20 6.66999 	-0.279175 	-1.74616e-20 6.66189 	-0.280703 	-1.83749e-20 6.65372 	-0.28223 	-1.92796e-20 6.64475 	-0.283523 	-1.19442e-20 6.63624 	-0.285295 	-8.23884e-21 6.62791 	-0.28685 	-8.36173e-21 6.61951 	-0.288404 	-8.48704e-21 6.61105 	-0.289959 	-8.61477e-21 6.60231 	-0.291446 	-9.91465e-21 6.59882 	-0.29214 	-7.97646e-21 6.59538 	-0.292772 	-6.46382e-21 6.59193 	-0.293404 	-4.95119e-21 6.58848 	-0.294036 	-3.43858e-21 6.5851 	-0.29465 	-1.96752e-21 6.58035 	-0.295602 	-4.68087e-22 6.57558 	-0.296554 	1.02826e-21 6.57078 	-0.297506 	2.52151e-21 6.56597 	-0.298457 	4.01165e-21 6.561 	-0.29931 	8.9387e-21 6.55344 	-0.30102 	1.56525e-20 6.54532 	-0.302624 	2.00087e-20 6.53714 	-0.304228 	2.4369e-20 6.5289 	-0.305832 	2.87335e-20 6.52025 	-0.307171 	2.42148e-20 6.51323 	-0.309078 	3.00636e-20 6.50483 	-0.310703 	2.85595e-20 6.49636 	-0.312327 	2.70585e-20 6.48781 	-0.313933 	2.51314e-20 6.47867 	-0.315146 	1.40732e-20 6.47176 	-0.317155 	1.00668e-20 6.46349 	-0.318891 	8.47183e-21 6.45473 	-0.320534 	7.69079e-21 6.44566 	-0.321987 	8.78834e-21 6.43623 	-0.323224 	1.20524e-20 6.429 	-0.325243 	2.16612e-20 6.42131 	-0.327178 	2.91621e-20 6.41225 	-0.328837 	2.96842e-20 6.40265 	-0.330137 	2.04417e-20 6.39293 	-0.331394 	1.00493e-20 6.38538 	-0.333421 	6.27374e-21 6.37776 	-0.335447 	2.49585e-21 6.36873 	-0.337095 	1.08018e-21 6.35878 	-0.338371 	2.63305e-21 6.34877 	-0.339646 	4.18526e-21 6.34089 	-0.34168 	2.29335e-21 6.33295 	-0.343713 	4.00194e-22 6.32428 	-0.345386 	-2.35918e-21 6.31403 	-0.346679 	-4.1887e-21 6.30372 	-0.347972 	-6.02111e-21 6.29553 	-0.350011 	-5.12978e-21 6.28712 	-0.351951 	-4.62524e-21 6.27826 	-0.3536 	-5.25264e-21 6.26841 	-0.355055 	-6.58482e-21 6.2578 	-0.356363 	-8.44715e-21 6.24928 	-0.358407 	-7.56485e-21 6.24031 	-0.360169 	-5.38404e-21 6.23112 	-0.361826 	-2.72278e-21 6.22188 	-0.363482 	-6.35789e-23 6.211 	-0.364813 	0 6.20204 	-0.366777 	0 6.19261 	-0.368442 	0 6.1831 	-0.370106 	0 6.17353 	-0.37177 	0 6.16332 	-0.373316 	0 6.15799 	-0.374369 	0 6.15248 	-0.375315 	0 6.14696 	-0.37626 	0 6.14141 	-0.377205 	0 6.13604 	-0.378115 	0 6.13187 	-0.378849 	0 6.12769 	-0.379583 	0 6.12349 	-0.380316 	0 6.11927 	-0.38105 	0 6.11525 	-0.381703 	-1.18649e-21 6.10571 	-0.383471 	3.282e-23 6.096 	-0.385152 	7.78445e-23 6.08622 	-0.386832 	1.22832e-22 6.07637 	-0.388512 	1.67783e-22 6.06709 	-0.389926 	-4.73634e-21 6.05749 	-0.391899 	-8.64836e-21 6.04746 	-0.393586 	-9.7783e-21 6.03736 	-0.395272 	-1.09152e-20 6.02739 	-0.396871 	-9.79193e-21 6.018 	-0.398193 	-1.49446e-21 6.00814 	-0.400194 	-4.86162e-22 5.99802 	-0.402063 	-7.98872e-22 5.9876 	-0.403756 	-2.86515e-21 5.97773 	-0.405172 	-3.0975e-21 5.96799 	-0.406505 	-2.77605e-21 5.95782 	-0.408507 	-2.25293e-21 5.94757 	-0.410507 	-1.72609e-21 5.93718 	-0.412175 	-2.59903e-21 5.92715 	-0.41352 	-6.61687e-21 5.91705 	-0.414864 	-1.06356e-20 5.90658 	-0.416867 	-6.33021e-21 5.89601 	-0.418869 	-2.02467e-21 5.88602 	-0.42056 	-4.26239e-21 5.87563 	-0.421916 	-1.25623e-20 5.86518 	-0.423273 	-2.08648e-20 5.85439 	-0.425278 	-4.45713e-20 5.84382 	-0.427134 	-5.30524e-20 5.8336 	-0.428793 	-4.14448e-20 5.82318 	-0.430367 	-2.47772e-20 5.81236 	-0.431737 	4.23373e-21 5.80126 	-0.433743 	-1.97476e-20 5.79076 	-0.435411 	-1.46254e-20 5.78019 	-0.437078 	-9.47341e-21 5.76955 	-0.438743 	-4.