# vtk DataFile Version 2.0
track0
ASCII
DATASET POLYDATA
POINTS 11900 float
-0.0205 0.001 1e-05
-0.0202034 0.0010001 1e-05
-0.0199069 0.00100035 1e-05
-0.0196103 0.00100072 1e-05
-0.0193137 0.0010012 1e-05
-0.0190172 0.00100179 1e-05
-0.0187132 0.00100302 1e-05
-0.0184093 0.00100345 1e-05
-0.0181054 0.00100385 1e-05
-0.0178015 0.00100422 1e-05
-0.0174976 0.00100457 1e-05
-0.0172058 0.00100548 1e-05
-0.016914 0.00100571 1e-05
-0.0166222 0.00100595 1e-05
-0.0163305 0.00100621 1e-05
-0.0160387 0.00100649 1e-05
-0.0157586 0.00100728 1e-05
-0.0154784 0.00100761 1e-05
-0.0151983 0.00100798 1e-05
-0.0149182 0.00100839 1e-05
-0.0146381 0.00100886 1e-05
-0.0143692 0.00100974 1e-05
-0.0141002 0.00101029 1e-05
-0.0138313 0.00101088 1e-05
-0.0135624 0.00101152 1e-05
-0.0132934 0.0010122 1e-05
-0.0130353 0.00101317 1e-05
-0.0127771 0.00101391 1e-05
-0.0125189 0.00101469 1e-05
-0.0122607 0.00101551 1e-05
-0.0120025 0.00101635 1e-05
-0.0117547 0.00101738 1e-05
-0.0115068 0.00101826 1e-05
-0.0112589 0.00101917 1e-05
-0.0110111 0.00102011 1e-05
-0.0107632 0.00102107 1e-05
-0.0105252 0.00102213 1e-05
-0.0102873 0.0010231 1e-05
-0.0100493 0.0010241 1e-05
-0.00981133 0.00102511 1e-05
-0.00957337 0.00102614 1e-05
-0.00934491 0.00102721 1e-05
-0.00911645 0.00102824 1e-05
-0.00888799 0.00102928 1e-05
-0.00865954 0.00103033 1e-05
-0.00843108 0.0010314 1e-05
-0.00821175 0.00103246 1e-05
-0.00799242 0.00103351 1e-05
-0.00777309 0.00103457 1e-05
-0.00755376 0.00103564 1e-05
-0.00733443 0.00103672 1e-05
-0.00719279 0.00103742 1e-05
-0.00705114 0.00103813 1e-05
-0.0069095 0.00103884 1e-05
-0.00676785 0.00103955 1e-05
-0.00662729 0.00104025 1e-05
-0.00655815 0.0010406 1e-05
-0.00648901 0.00104095 1e-05
-0.00641988 0.0010413 1e-05
-0.00635074 0.00104165 1e-05
-0.0062816 0.00104201 1e-05
-0.00607944 0.00104303 1e-05
-0.00587729 0.00104407 1e-05
-0.00567514 0.0010451 1e-05
-0.00547298 0.00104615 1e-05
-0.00527083 0.00104719 1e-05
-0.00507675 0.00104819 1e-05
-0.00488267 0.0010492 1e-05
-0.0046886 0.0010502 1e-05
-0.00449452 0.00105121 1e-05
-0.00430044 0.00105223 1e-05
-0.00411412 0.00105319 1e-05
-0.0039278 0.00105416 1e-05
-0.00374147 0.00105514 1e-05
-0.00355515 0.00105611 1e-05
-0.00336883 0.00105709 1e-05
-0.00318995 0.00105801 1e-05
-0.00301107 0.00105895 1e-05
-0.00283219 0.00105988 1e-05
-0.00265331 0.00106082 1e-05
-0.00247443 0.00106175 1e-05
-0.0023027 0.00106264 1e-05
-0.00213097 0.00106354 1e-05
-0.00195924 0.00106443 1e-05
-0.0017875 0.00106533 1e-05
-0.00161577 0.00106622 1e-05
-0.0014509 0.00106707 1e-05
-0.00128603 0.00106792 1e-05
-0.00112116 0.00106877 1e-05
-0.000956289 0.00106961 1e-05
-0.000791418 0.00107045 1e-05
-0.000633135 0.00107124 1e-05
-0.000474851 0.00107202 1e-05
-0.000316567 0.00107279 1e-05
-0.000158283 0.00107354 1e-05
0 0.00107428 1e-05
0.000105677 0.00107475 1e-05
0.000211355 0.00107522 1e-05
0.000317032 0.00107568 1e-05
0.00042271 0.00107613 1e-05
0.000528387 0.00107656 1e-05
0.000634886 0.00107697 1e-05
0.000741385 0.00107738 1e-05
0.000847885 0.00107778 1e-05
0.000954384 0.00107817 1e-05
0.00106088 0.00107855 1e-05
0.00116821 0.00107891 1e-05
0.00127554 0.00107927 1e-05
0.00138286 0.00107962 1e-05
0.00149019 0.00107995 1e-05
0.00159752 0.00108028 1e-05
0.00170568 0.00108058 1e-05
0.00181384 0.00108089 1e-05
0.001922 0.00108119 1e-05
0.00203016 0.00108148 1e-05
0.00213833 0.00108176 1e-05
0.00224733 0.00108201 1e-05
0.00235633 0.00108228 1e-05
0.00246533 0.00108253 1e-05
0.00257434 0.00108278 1e-05
0.00268334 0.00108302 1e-05
0.00279319 0.00108324 1e-05
0.00290304 0.00108347 1e-05
0.00301289 0.00108369 1e-05
0.00312274 0.0010839 1e-05
0.00323259 0.00108411 1e-05
0.00334329 0.0010843 1e-05
0.003454 0.0010845 1e-05
0.0035647 0.00108469 1e-05
0.0036754 0.00108488 1e-05
0.00378611 0.00108506 1e-05
0.00389767 0.00108523 1e-05
0.00400924 0.0010854 1e-05
0.0041208 0.00108557 1e-05
0.00423237 0.00108573 1e-05
0.00434393 0.00108589 1e-05
0.00445636 0.00108604 1e-05
0.00456879 0.00108619 1e-05
0.00468123 0.00108633 1e-05
0.00479366 0.00108647 1e-05
0.00490609 0.0010866 1e-05
0.0050194 0.00108673 1e-05
0.0051327 0.00108686 1e-05
0.00524601 0.00108698 1e-05
0.00535932 0.0010871 1e-05
0.00547262 0.00108721 1e-05
0.00555865 0.00108729 1e-05
0.00564467 0.00108737 1e-05
0.00573069 0.00108744 1e-05
0.00581672 0.00108752 1e-05
0.00589954 0.00108759 1e-05
0.00592834 0.00108761 1e-05
0.00595715 0.00108763 1e-05
0.00598595 0.00108765 1e-05
0.00601475 0.00108768 1e-05
0.00604356 0.0010877 1e-05
0.00615863 0.00108778 1e-05
0.00627371 0.00108786 1e-05
0.00638878 0.00108794 1e-05
0.00650386 0.00108801 1e-05
0.00661893 0.00108808 1e-05
0.0067349 0.00108814 1e-05
0.00685087 0.00108819 1e-05
0.00696684 0.00108825 1e-05
0.00708281 0.00108829 1e-05
0.00719878 0.00108833 1e-05
0.00731565 0.00108837 1e-05
0.00743252 0.0010884 1e-05
0.00754939 0.00108843 1e-05
0.00766626 0.00108845 1e-05
0.00778313 0.00108846 1e-05
0.00790091 0.00108847 1e-05
0.00801869 0.00108847 1e-05
0.00813647 0.00108847 1e-05
0.00825425 0.00108847 1e-05
0.00837203 0.00108846 1e-05
0.00849073 0.00108843 1e-05
0.00860942 0.00108841 1e-05
0.00872812 0.00108838 1e-05
0.00884682 0.00108834 1e-05
0.00896551 0.0010883 1e-05
0.00908513 0.00108824 1e-05
0.00920475 0.00108819 1e-05
0.00932437 0.00108813 1e-05
0.00944398 0.00108806 1e-05
0.0095636 0.00108799 1e-05
0.00968415 0.0010879 1e-05
0.0098047 0.00108781 1e-05
0.00992525 0.00108772 1e-05
0.0100458 0.00108762 1e-05
0.0101663 0.00108751 1e-05
0.0102878 0.00108738 1e-05
0.0104093 0.00108726 1e-05
0.0105308 0.00108713 1e-05
0.0106523 0.001087 1e-05
0.0107738 0.00108686 1e-05
0.0108962 0.00108669 1e-05
0.0110186 0.00108653 1e-05
0.0111411 0.00108637 1e-05
0.0112635 0.0010862 1e-05
0.0113859 0.00108602 1e-05
0.0115093 0.00108581 1e-05
0.0116327 0.00108561 1e-05
0.0117561 0.00108541 1e-05
0.0118795 0.00108519 1e-05
0.0120028 0.00108498 1e-05
0.0121272 0.00108472 1e-05
0.0122515 0.00108448 1e-05
0.0123759 0.00108424 1e-05
0.0125002 0.00108399 1e-05
0.0126245 0.00108373 1e-05
0.0127498 0.00108343 1e-05
0.0128752 0.00108315 1e-05
0.0130005 0.00108286 1e-05
0.0131258 0.00108256 1e-05
0.0132511 0.00108226 1e-05
0.0133774 0.00108192 1e-05
0.0135036 0.00108159 1e-05
0.0136299 0.00108125 1e-05
0.0137562 0.00108091 1e-05
0.0138825 0.00108056 1e-05
0.0140098 0.00108017 1e-05
0.014137 0.0010798 1e-05
0.0142643 0.00107941 1e-05
0.0143915 0.00107902 1e-05
0.0145188 0.00107862 1e-05
0.0146471 0.00107819 1e-05
0.0147753 0.00107776 1e-05
0.0149036 0.00107733 1e-05
0.0150318 0.00107689 1e-05
0.0151601 0.00107644 1e-05
0.0152893 0.00107595 1e-05
0.0154186 0.00107548 1e-05
0.0155478 0.00107499 1e-05
0.0156771 0.0010745 1e-05
0.0158063 0.00107399 1e-05
0.0159366 0.00107346 1e-05
0.0160668 0.00107293 1e-05
0.0161971 0.00107239 1e-05
0.0163274 0.00107184 1e-05
0.0164576 0.00107128 1e-05
0.0165889 0.00107069 1e-05
0.0167201 0.00107011 1e-05
0.0168514 0.00106951 1e-05
0.0169827 0.00106891 1e-05
0.0171139 0.00106829 1e-05
0.0172462 0.00106765 1e-05
0.0173785 0.00106701 1e-05
0.0175108 0.00106636 1e-05
0.0176431 0.0010657 1e-05
0.0177754 0.00106502 1e-05
0.0179087 0.00106433 1e-05
0.018042 0.00106363 1e-05
0.0181753 0.00106292 1e-05
0.0183087 0.0010622 1e-05
0.018442 0.00106147 1e-05
0.0185763 0.00106072 1e-05
0.0187107 0.00105996 1e-05
0.018845 0.00105919 1e-05
0.0189794 0.00105841 1e-05
0.0191137 0.00105762 1e-05
0.0192491 0.00105682 1e-05
0.0193845 0.00105601 1e-05
0.0195199 0.00105517 1e-05
0.0196553 0.00105433 1e-05
0.0197907 0.00105348 1e-05
0.0199272 0.00105263 1e-05
0.0200636 0.00105175 1e-05
0.0202001 0.00105085 1e-05
0.0203365 0.00104995 1e-05
0.020473 0.00104904 1e-05
0.0206105 0.00104813 1e-05
0.020748 0.00104719 1e-05
0.0208855 0.00104623 1e-05
0.021023 0.00104527 1e-05
0.0211606 0.0010443 1e-05
0.0212991 0.00104333 1e-05
0.0214377 0.00104233 1e-05
0.0215763 0.00104131 1e-05
0.0217149 0.00104028 1e-05
0.0218535 0.00103925 1e-05
0.0219931 0.00103822 1e-05
0.0221328 0.00103716 1e-05
0.0222724 0.00103608 1e-05
0.0224121 0.00103498 1e-05
0.0225517 0.00103389 1e-05
0.0226925 0.00103281 1e-05
0.0228332 0.00103169 1e-05
0.022974 0.00103054 1e-05
0.0231147 0.00102938 1e-05
0.0232555 0.00102824 1e-05
0.0233973 0.00102709 1e-05
0.0235391 0.00102591 1e-05
0.023681 0.0010247 1e-05
0.0238228 0.00102348 1e-05
0.0239647 0.00102227 1e-05
0.0241076 0.00102106 1e-05
0.0242505 0.00101982 1e-05
0.0243935 0.00101855 1e-05
0.0245364 0.00101727 1e-05
0.0246794 0.001016 1e-05
0.0248234 0.00101473 1e-05
0.0249675 0.00101343 1e-05
0.0251115 0.00101209 1e-05
0.0252556 0.00101075 1e-05
0.0253996 0.00100941 1e-05
0.0255448 0.00100809 1e-05
0.02569 0.00100672 1e-05
0.0258351 0.00100532 1e-05
0.0259803 0.00100391 1e-05
0.0261255 0.00100252 1e-05
0.0262718 0.00100113 1e-05
0.0264181 0.000999705 1e-05
0.0265644 0.000998243 1e-05
0.0267107 0.000996771 1e-05
0.026857 0.000995314 1e-05
0.0270044 0.000993862 1e-05
0.0271519 0.000992372 1e-05
0.0272993 0.000990846 1e-05
0.0274468 0.000989311 1e-05
0.0275942 0.000987791 1e-05
0.0277428 0.000986275 1e-05
0.0278914 0.000984722 1e-05
0.0280399 0.000983134 1e-05
0.0281885 0.000981538 1e-05
0.0283371 0.000979954 1e-05
0.0284869 0.000978373 1e-05
0.0286366 0.000976755 1e-05
0.0287863 0.000975107 1e-05
0.0289361 0.000973449 1e-05
0.0290858 0.0009718 1e-05
0.0292367 0.000970153 1e-05
0.0293876 0.000968469 1e-05
0.0295385 0.000966759 1e-05
0.0296894 0.000965039 1e-05
0.0298403 0.000963324 1e-05
0.0299924 0.00096161 1e-05
0.0301445 0.000959859 1e-05
0.0302966 0.000958085 1e-05
0.0304486 0.000956301 1e-05
0.0306007 0.000954519 1e-05
0.030754 0.000952736 1e-05
0.0309072 0.000950916 1e-05
0.0310605 0.000949077 1e-05
0.0312138 0.000947229 1e-05
0.031367 0.000945377 1e-05
0.0315215 0.000943524 1e-05
0.0316759 0.000941634 1e-05
0.0318304 0.000939728 1e-05
0.0319848 0.000937813 1e-05
0.0321393 0.000935891 1e-05
0.0322949 0.000933965 1e-05
0.0324506 0.000932002 1e-05
0.0326062 0.000930029 1e-05
0.0327619 0.000928044 1e-05
0.0329175 0.00092605 1e-05
0.0330744 0.000924049 1e-05
0.0332313 0.000922015 1e-05
0.0333881 0.00091997 1e-05
[...]
POINT_DATA 11900
 FIELD attributes 2
p 1 11900 float
-3.90745 -3.8998 -3.89178 -3.88372 -3.87563 -3.87613 -3.84906 -3.86515 -3.88122 -3.89728 -3.95844 -3.96456 -4.00338 -4.0422 -4.08102 -4.14261 -4.14184 -4.16885 -4.19587 -4.22291 -4.26943 -4.27319 -4.29653 -4.31988 -4.34325 -4.38136 -4.39052 -4.41222 -4.43393 -4.45564 -4.48681 -4.49806 -4.51723 -4.53641 -4.5556 -4.58055 -4.59273 -4.60977 -4.62681 -4.64385 -4.66421 -4.67709 -4.69272 -4.70835 -4.72398 -4.74124 -4.75457 -4.76923 -4.78389 -4.79855 -4.81373 -4.8227 -4.83208 -4.84146 -4.85084 -4.86015 -4.86472 -4.8693 -4.87388 -4.87845 -4.88288 -4.8964 -4.90982 -4.92323 -4.93664 -4.94955 -4.96298 -4.97603 -4.98908 -5.00213 -5.01447 -5.02786 -5.04071 -5.05356 -5.06642 -5.07845 -5.09194 -5.10483 -5.11771 -5.13059 -5.14263 -5.15672 -5.17024 -5.18376 -5.19728 -5.21001 -5.22617 -5.24219 -5.25821 -5.27422 -5.28958 -5.30765 -5.32513 -5.34262 -5.3601 -5.37598 -5.39003 -5.40177 -5.4135 -5.42523 -5.43466 -5.44453 -5.45123 -5.45793 -5.46463 -5.4689 -5.47769 -5.48321 -5.48873 -5.49425 -5.49701 -5.50569 -5.51081 -5.51593 -5.52104 -5.52295 -5.5302 -5.534 -5.5378 -5.5416 -5.54235 -5.54797 -5.55074 -5.55351 -5.55627 -5.55657 -5.56093 -5.56316 -5.56539 -5.56762 -5.56807 -5.57136 -5.57321 -5.57505 -5.5769 -5.57761 -5.58 -5.58152 -5.58303 -5.58455 -5.58547 -5.58719 -5.58846 -5.58974 -5.59101 -5.59209 -5.59308 -5.59393 -5.59478 -5.59562 -5.59644 -5.59672 -5.597 -5.59729 -5.59757 -5.59787 -5.59891 -5.59996 -5.601 -5.60205 -5.60313 -5.60416 -5.60519 -5.60622 -5.60724 -5.60829 -5.60937 -5.61043 -5.6115 -5.61256 -5.61366 -5.61476 -5.6159 -5.61703 -5.61816 -5.61941 -5.62047 -5.62168 -5.62289 -5.6241 -5.62561 -5.62652 -5.62782 -5.62912 -5.63042 -5.63231 -5.63298 -5.63437 -5.63576 -5.63715 -5.63952 -5.63987 -5.64136 -5.64284 -5.64433 -5.64728 -5.64723 -5.64882 -5.6504 -5.65199 -5.65558 -5.6551 -5.65678 -5.65846 -5.66014 -5.66441 -5.66348 -5.66526 -5.66704 -5.66882 -5.67377 -5.6724 -5.67427 -5.67615 -5.67802 -5.68363 -5.68187 -5.68383 -5.6858 -5.68776 -5.69397 -5.69188 -5.69394 -5.69599 -5.69805 -5.70479 -5.70245 -5.7046 -5.70674 -5.70891 -5.71606 -5.71375 -5.71581 -5.71804 -5.7207 -5.72777 -5.72579 -5.72756 -5.72987 -5.733 -5.73989 -5.7383 -5.73983 -5.74223 -5.74576 -5.7524 -5.75125 -5.75259 -5.75507 -5.75894 -5.76529 -5.7646 -5.76583 -5.76839 -5.77252 -5.77853 -5.77834 -5.77953 -5.78217 -5.78649 -5.79216 -5.79246 -5.79368 -5.7964 -5.80083 -5.80615 -5.80692 -5.80824 -5.81104 -5.81549 -5.82047 -5.82168 -5.82317 -5.82604 -5.83045 -5.83509 -5.83672 -5.83841 -5.84135 -5.84566 -5.85001 -5.85201 -5.85402 -5.85705 -5.86112 -5.86519 -5.86753 -5.86987 -5.87296 -5.8768 -5.88064 -5.88327 -5.8859 -5.88904 -5.89268 -5.89633 -5.89921 -5.90208 -5.90527 -5.90876 -5.91226 -5.91534 -5.91842 -5.92165 -5.92502 -5.9284 -5.93164 -5.93489 -5.93816 -5.94145 -5.94474 -5.94811 -5.95149 -5.95479 -5.95802 -5.96125 -5.96472 -5.96819 -5.97152 -5.97472 -5.97792 -5.98145 -5.98497 -5.98831 -5.99152 -5.99471 -5.99828 -6.0018 -6.00516 -6.0084 -6.01159 -6.01518 -6.01869 -6.02207 -6.02535 -6.02856 -6.03214 -6.03563 -6.03903 -6.04235 -6.04559 -6.04916 -6.05262 -6.05603 -6.0594 -6.06266 -6.06621 -6.06964 -6.07305 -6.07645 -6.07974 -6.08324 -6.08665 -6.09005 -6.09345 -6.09676 -6.10021 -6.10359 -6.10698 -6.11036 -6.11369 -6.11708 -6.12044 -6.12379 -6.12715 -6.13048 -6.13381 -6.13713 -6.14045 -6.14377 -6.14708 -6.15034 -6.15361 -6.15688 -6.16015 -6.16342 -6.16662 -6.16983 -6.17303 -6.17624 -6.17945 -6.18111 -6.18278 -6.18444 -6.18611 -6.18773 -6.18921 -6.19069 -6.19217 -6.19365 -6.19513 -6.19818 -6.20123 -6.20428 -6.20734 -6.2104 -6.21335 -6.2163 -6.21925 -6.2222 -6.22515 -6.228 -6.23083 -6.23366 -6.23649 -6.23931 -6.24206 -6.24475 -6.24744 -6.25014 -6.25281 -6.25543 -6.25797 -6.26051 -6.26305 -6.26554 -6.26802 -6.2704 -6.27276 -6.27511 -6.27741 -6.27971 -6.28193 -6.28409 -6.28622 -6.28831 -6.29041 -6.29245 -6.2944 -6.29628 -6.29813 -6.30002 -6.30187 -6.30358 -6.30519 -6.30678 -6.30842 -6.31007 -6.31152 -6.31284 -6.31416 -6.31554 -6.31692 -6.31811 -6.31913 -6.32015 -6.32125 -6.32235 -6.32325 -6.32395 -6.32465 -6.32544 -6.32622 -6.32682 -6.32717 -6.32752 -6.32797 -6.32842 -6.32866 -6.32866 -6.32864 -6.32872 -6.32874 -6.32861 -6.32828 -6.32786 -6.32755 -6.32712 -6.32658 -6.32592 -6.32508 -6.32436 -6.32343 -6.32245 -6.32145 -6.32015 -6.31898 -6.31753 -6.31609 -6.31465 -6.31294 -6.31121 -6.30927 -6.30733 -6.3054 -6.30329 -6.30096 -6.29849 -6.29603 -6.29357 -6.29105 -6.28953 -6.28795 -6.28638 -6.28481 -6.28329 -6.28186 -6.28044 -6.27901 -6.27759 -6.27616 -6.27264 -6.2691 -6.26556 -6.26202 -6.25847 -6.25438 -6.25023 -6.24608 -6.24193 -6.23772 -6.23306 -6.22825 -6.22345 -6.21865 -6.21376 -6.20844 -6.20301 -6.19753 -6.192 -6.18641 -6.18039 -6.17432 -6.16813 -6.16183 -6.15551 -6.14876 -6.14201 -6.13507 -6.12798 -6.12089 -6.11337 -6.10586 -6.09816 -6.09027 -6.08239 -6.07408 -6.06577 -6.05728 -6.04856 -6.03985 -6.03071 -6.02153 -6.01218 -6.00269 -5.99312 -5.98312 -5.97298 -5.96276 -5.9525 -5.94204 -5.93116 -5.92002 -5.90889 -5.89777 -5.88648 -5.87457 -5.8625 -5.85044 -5.83839 -5.82629 -5.82113 -5.81592 -5.81071 -5.80551 -5.80044 -5.79261 -5.78478 -5.77695 -5.76913 -5.76127 -5.74732 -5.73334 -5.71936 -5.7054 -5.69133 -5.67645 -5.66148 -5.64652 -5.63156 -5.61642 -5.60058 -5.58464 -5.56868 -5.55263 -5.53647 -5.51961 -5.50273 -5.48575 -5.46858 -5.45139 -5.43351 -5.41564 -5.3976 -5.37936 -5.36112 -5.34221 -5.3233 -5.30418 -5.28489 -5.2656 -5.24564 -5.22563 -5.20541 -5.18512 -5.16477 -5.14377 -5.12256 -5.10128 -5.08001 -5.0586 -5.03647 -5.01411 -4.99176 -4.96942 -4.94702 -4.93385 -4.9206 -4.90734 -4.89409 -4.88132 -4.87108 -4.86084 -4.8506 -4.84037 -4.83002 -4.80565 -4.7812 -4.75676 -4.73234 -4.70751 -4.68224 -4.65671 -4.63118 -4.60553 -4.57945 -4.55311 -4.52665 -4.50004 -4.47297 -4.44577 -4.41833 -4.3909 -4.36307 -4.33475 -4.30642 -4.27788 -4.24934 -4.22025 -4.19079 -4.16133 -4.13167 -4.10173 -4.07142 -4.04103 -4.01042 -3.97962 -3.94815 -3.91669 -3.88523 -3.85361 -3.83228 -3.81068 -3.78908 -3.76748 -3.74678 -3.7356 -3.72442 -3.71324 -3.70207 -3.69073 -3.6571 -3.62337 -3.58966 -3.55595 -3.52158 -3.48703 -3.45213 -3.41721 -3.38195 -3.34619 -3.31042 -3.27463 -3.23845 -3.20145 -3.16443 -3.12743 -3.09045 -3.05275 -3.01447 -2.97618 -2.93793 -2.89936 -2.86019 -2.82088 -2.7813 -2.74174 -2.70125 -2.66077 -2.6203 -2.57964 -2.56195 -2.54397 -2.526 -2.50802 -2.49054 -2.46668 -2.44282 -2.41896 -2.39511 -2.37084 -2.32806 -2.28502 -2.242 -2.19889 -2.15478 -2.11085 -2.06669 -2.02229 -1.97701 -1.93149 -1.88616 -1.84085 -1.79472 -1.74779 -1.70083 -1.65409 -1.60704 -1.55915 -1.51109 -1.46268 -1.41444 -1.36509 -1.31574 -1.2664 -1.21691 -1.20579 -1.19446 -1.18314 -1.17181 -1.16065 -1.12126 -1.08187 -1.04249 -1.00311 -0.962966 -0.911323 -0.859192 -0.807073 -0.754457 -0.701056 -0.647971 -0.594897 -0.541041 -0.486157 -0.431235 -0.376632 -0.32197 -0.266119 -0.209905 -0.153455 -0.0973245 -0.0400453 0.0173357 0.0747066 0.132311 0.146063 0.160084 0.174105 0.188125 0.201907 0.246675 0.291437 0.336192 0.380939 0.426588 0.486219 0.54639 0.606572 0.66747 0.728988 0.790137 0.851273 0.913306 0.97625 1.03926 1.10192 1.16509 1.22896 1.29282 1.35731 1.39706 1.43754 1.47802 1.5185 1.55712 1.58226 1.60739 1.63252 1.65765 1.68326 1.74944 1.81594 1.88243 1.94934 2.01711 2.08449 2.15185 2.22 2.289 2.35811 2.42685 2.49603 2.56584 2.63563 2.70597 2.7388 2.77208 2.80539 2.8387 2.87081 2.90868 2.94655 2.98442 3.02232 3.06075 3.13236 3.20436 3.27635 3.34893 3.42196 3.49471 3.56744 3.64082 3.71469 3.78875 3.85499 3.92175 3.98862 4.05546 4.11764 4.12623 4.13482 4.14341 4.15201 4.16066 4.23586 4.31109 4.3863 4.46162 4.5374 4.61327 4.68911 4.76516 4.84141 4.91787 4.99134 5.0649 5.13849 5.21206 5.2801 5.28435 5.28859 5.29284 5.29709 5.30136 5.37847 5.45558 5.53266 5.60978 5.6873 5.76463 5.84193 5.91931 5.9968 6.07454 6.14792 6.22124 6.29453 6.36779 6.43595 6.44121 6.44646 6.45171 6.45696 6.46222 6.53977 6.61732 6.69484 6.77234 6.8501 6.9274 7.00466 7.08176 7.15888 7.23632 7.27876 7.32108 7.36332 7.40555 7.44619 7.48107 7.51594 7.55081 7.58561 7.62038 7.69677 7.77312 7.84937 7.9252 8.00131 8.07004 8.13846 8.20658 8.27468 8.3394 8.34705 8.3547 8.36235 8.36997 8.37756 8.45216 8.5267 8.60123 8.67525 8.74929 8.82282 8.8961 8.96879 9.04146 9.11429 9.1196 9.12488 9.13012 9.13536 9.14059 9.2074 9.2742 9.34098 9.4073 9.47341 9.5442 9.61486 9.68471 9.75456 9.82437 9.83433 9.84423 9.85404 9.86385 9.87366 9.93282 9.99199 10.0512 10.1098 10.1682 10.2358 10.3032 10.3698 10.4364 10.5027 10.5143 10.5259 10.5373 10.5487 10.5602 10.6142 10.6683 10.7223 10.7758 10.8289 10.8928 10.9567 11.0195 11.0823 11.1447 11.1594 11.1741 11.1886 11.2032 11.2179 11.2647 11.3116 11.3585 11.4049 11.4508 11.5105 11.5702 11.629 11.6874 11.7454 11.7687 11.7918 11.8146 11.8375 11.8611 11.8948 11.9286 11.9623 11.9957 12.0287 12.0837 12.1387 12.193 12.2464 12.2995 12.34 12.38 12.4195 12.459 12.5022 12.5132 12.5243 12.5353 12.5462 12.557 12.6067 12.6561 12.7055 12.754 12.802 12.8489 12.8959 12.9416 12.9871 13.0322 13.0551 13.0776 13.0999 13.1221 13.1462 13.1668 13.1874 13.208 13.2285 13.2486 13.2899 13.3308 13.3717 13.4116 13.4511 13.4895 13.5279 13.5652 13.602 13.6387 13.6699 13.7002 13.7304 13.7606 13.7955 13.7987 13.802 13.8052 13.8085 13.8116 13.844 13.8763 13.9085 13.9406 13.9718 14.0016 14.0314 14.0608 14.0893 14.1177 14.1449 14.1721 14.1984 14.2243 14.2501 14.2747 14.2986 14.3224 14.3461 14.3695 14.3813 14.3928 14.4042 14.4157 14.4284 14.4383 14.4481 14.458 14.4678 14.4775 14.4972 14.5168 14.5363 14.5559 14.5749 14.5927 14.6103 14.6278 14.6451 14.6622 14.6782 14.6942 14.71 14.7257 14.7414 14.7561 14.7708 14.7852 14.799 14.8129 14.8258 14.8392 14.8537 14.8685 14.8835 14.8977 14.9092 14.9193 14.9283 14.9331 14.9368 14.9508 14.9656 14.9804 15.0031 15.0214 15.0248 15.0282 15.0316 15.0361 15.0361 15.0361 15.036 15.036 15.036 15.0247 15.0133 15.0019 14.9904 14.979 14.965 14.9508 14.9366 14.9217 14.906 14.8877 14.8692 14.85 14.8293 14.8086 14.7852 14.7619 14.7373 14.7115 14.6857 14.6572 14.6285 14.5986 14.5681 14.5372 14.5035 14.4689 14.4338 14.3986 14.3624 14.323 14.2823 14.2416 14.2009 14.1596 14.1201 14.0801 14.04 13.9999 13.9506 13.9458 13.941 13.9362 13.9314 13.9265 13.8737 13.8208 13.7679 13.7149 13.6611 13.602 13.5418 13.4816 13.4214 13.3595 13.2935 13.2253 13.1571 13.0884 13.0179 12.9435 12.8675 12.7905 12.7119 12.6323 12.5483 12.464 12.3771 12.2875 12.1977 12.1033 12.0089 11.9109 11.8097 11.7083 11.6021 11.4958 11.3858 11.272 11.1582 11.0391 10.9199 10.7959 10.6669 10.5378 10.4029 10.2671 10.1279 9.98559 9.8421 9.69229 9.53813 9.37921 9.21686 9.04931 8.87458 8.69929 8.52379 8.34818 8.17159 7.98736 7.77724 7.56715 7.35709 7.12747 6.8914 6.67713 6.46286 6.2486 6.04871 5.79338 5.47966 5.16625 4.85314 4.51327 4.26223 4.06494 3.86954 3.67601 3.64821 3.59664 3.54501 3.49333 3.4416 3.40876 2.8571 2.2516 1.65499 1.0671 0