/*--------------------------------*- C++ -*----------------------------------*\
| =========                 |                                                 |
| \\      /  F ield         | OpenFOAM: The Open Source CFD Toolbox           |
|  \\    /   O peration     | Version:  2.2.x                                 |
|   \\  /    A nd           | Web:      www.OpenFOAM.org                      |
|    \\/     M anipulation  |                                                 |
\*---------------------------------------------------------------------------*/
FoamFile
{
    version     2.0;
    format      ascii;
    class       volScalarField;
    location    "300";
    object      epsilon;
}
// * * * * * * * * * * * * * * * * * * * * * * * * * * * * * * * * * * * * * //

dimensions      [0 2 -3 0 0 0 0];

internalField   nonuniform List<scalar> 
12225
(
1739.11
3020.51
4030.04
4714.44
5131.77
5357.45
5455.12
5471.43
5438.19
5376.19
5298.69
5213.99
5127.18
5041.35
4958.26
4878.85
4802.4
4735.59
187.434
345.322
471.719
572.34
644.943
693.063
722.899
740.197
749.38
753.584
754.93
754.799
754.064
753.268
752.782
753.128
756.546
763.824
41.8455
72.5114
98.5968
120.704
138.703
152.692
163.17
170.777
176.136
179.801
182.23
183.788
184.756
185.346
185.725
186.049
186.501
186.914
20.3599
27.9838
35.4736
42.3298
48.3719
53.5352
57.8488
61.3898
64.254
66.5407
68.3447
69.7522
70.8385
71.6683
72.2968
72.7719
73.1293
73.3478
16.0562
18.214
20.6765
23.1531
25.5023
27.6511
29.5707
31.2581
32.7236
33.9841
35.0599
35.9718
36.7401
37.3839
37.9204
38.3648
38.7282
39.0079
15.0131
15.5457
16.3134
17.1972
18.1173
19.0219
19.8809
20.6782
21.4066
22.0645
22.6533
23.1769
23.6396
24.0465
24.4028
24.7131
24.9811
25.2056
14.7583
14.7815
14.9214
15.1499
15.4368
15.7564
16.0888
16.4203
16.7416
17.0469
17.3328
17.5976
17.8408
18.0625
18.2634
18.4443
18.6061
18.7472
14.7063
14.5999
14.5497
14.5525
14.5993
14.6797
14.7831
14.9011
15.0268
15.1549
15.2819
15.405
15.5224
15.633
15.7363
15.8316
15.9189
15.9962
14.6923
14.5448
14.4247
14.3339
14.2713
14.2337
14.217
14.217
14.2298
14.2517
14.28
14.3124
14.347
14.3825
14.4177
14.452
14.4845
14.5138
14.6883
14.5275
14.3816
14.2517
14.1383
14.041
13.9587
13.8899
13.833
13.7862
13.7479
13.7166
13.6911
13.6702
13.653
13.6386
13.6265
13.6156
14.6872
14.5228
14.3691
14.2261
14.0938
13.9721
13.8607
13.7592
13.6668
13.5829
13.5067
13.4376
13.3747
13.3175
13.2652
13.2173
13.1733
13.1329
14.6868
14.5216
14.3659
14.2193
14.0815
13.9521
13.8306
13.7168
13.6103
13.5106
13.4175
13.3304
13.2489
13.1728
13.1016
13.0348
12.9723
12.9142
14.6866
14.5211
14.365
14.2176
14.0784
13.947
13.8228
13.7055
13.5947
13.4899
13.3909
13.2974
13.2089
13.1253
13.0462
12.9714
12.9006
12.8342
14.6865
14.5209
14.3646
14.217
14.0775
13.9456
13.8208
13.7027
13.5908
13.4847
13.3842
13.2889
13.1984
13.1125
13.031
12.9536
12.88
12.8109
14.6864
14.5207
14.3643
14.2166
14.077
13.9449
13.8199
13.7016
13.5894
13.4831
13.3822
13.2865
13.1955
13.1091
13.027
12.9489
12.8747
12.8048
14.6863
14.5206
14.3641
14.2163
14.0766
13.9445
13.8194
13.7009
13.5887
13.4822
13.3812
13.2854
13.1943
13.1077
13.0255
12.9472
12.8728
12.8028
14.6863
14.5205
14.364
14.2161
14.0764
13.9442
13.819
13.7005
13.5882
13.4817
13.3806
13.2847
13.1935
13.1069
13.0246
12.9463
12.8718
12.8017
14.6863
14.5205
14.364
14.2161
14.0763
13.9441
13.8189
13.7003
13.588
13.4814
13.3803
13.2843
13.1932
13.1065
13.0242
12.9458
12.8713
12.8012
14.6863
14.5205
14.364
14.2161
14.0763
13.9441
13.8189
13.7004
13.588
13.4815
13.3804
13.2844
13.1932
13.1066
13.0243
12.9459
12.8715
12.8014
14.6863
14.5205
14.3641
14.2162
14.0765
13.9443
13.8192
13.7007
13.5884
13.4819
13.3809
13.2851
13.1941
13.1076
13.0254
12.9473
12.8731
12.8033
14.6864
14.5206
14.3642
14.2165
14.0769
13.9449
13.8201
13.702
13.5902
13.4844
13.3841
13.2891
13.1991
13.1137
13.0328
12.956
12.8832
12.8149
14.6865
14.5209
14.3648
14.2177
14.0791
13.9487
13.8259
13.7105
13.602
13.5
13.4042
13.3142
13.2297
13.1502
13.0755
13.0052
12.9392
12.8777
14.6868
14.5224
14.369
14.2266
14.095
13.9742
13.8637
13.7629
13.6711
13.5877
13.512
13.4431
13.3804
13.3233
13.2712
13.2236
13.1799
13.1404
14.6896
14.5346
14.3997
14.286
14.1933
14.1199
14.0638
14.0225
13.9936
13.9749
13.9643
13.9601
13.9608
13.9653
13.9725
13.9816
13.992
14.0034
14.712
14.6197
14.5882
14.6112
14.6784
14.7787
14.902
15.04
15.1861
15.3353
15.4841
15.6297
15.7703
15.9046
16.0319
16.1518
16.2641
16.3687
14.8713
15.122
15.5434
16.0688
16.6487
17.2479
17.8433
18.4204
18.9704
19.4884
19.9717
20.4196
20.8323
21.2108
21.5568
21.8719
22.158
22.4169
15.8758
17.7058
19.788
21.8975
23.9424
25.8754
27.6741
29.3298
30.8412
32.2111
33.4453
34.5512
35.5377
36.4139
37.1891
37.8722
38.4716
38.9954
22.1653
31.1
39.3145
46.8907
53.8861
60.2718
66.0357
71.1846
75.7369
79.722
83.1791
86.1535
88.6935
90.8474
92.6611
94.1759
95.4251
96.4281
68.0183
114.896
154.774
191.774
226.013
256.831
283.919
307.254
326.994
343.43
356.926
367.873
376.653
383.618
389.079
393.294
396.449
398.548
723.143
1065.45
1375.76
1655.22
1913.07
2142.38
2339.83
2505.09
2639.82
2746.87
2829.64
2891.62
2936.16
2966.29
2984.69
2993.66
2995.16
2990.68
4.07995
4.03453
5.59265
6.77513
8.24809
9.87473
11.8296
14.6576
18.0242
21.9677
26.4463
31.4195
36.8765
42.8385
49.2444
56.0711
63.3016
70.9206
78.9131
87.2644
95.9598
104.985
114.325
123.967
133.895
144.094
154.552
165.252
176.18
187.322
198.663
210.188
221.882
233.731
245.721
257.837
270.065
282.392
294.805
307.289
319.832
332.422
345.046
357.693
370.351
383.01
395.659
408.288
420.891
433.457
445.981
458.456
470.877
483.24
495.544
507.786
519.967
532.091
544.16
556.182
568.165
580.119
592.059
603.999
615.957
627.954
640.015
652.165
664.435
676.856
689.465
702.297
715.394
728.797
742.55
756.698
771.289
786.368
801.984
818.185
835.017
852.526
870.758
889.755
909.558
930.206
951.734
974.175
997.559
1021.91
1047.27
1073.65
1101.1
1129.66
1159.39
1190.4
1222.84
1256.98
1292.9
1329.55
1366.81
1404.47
1442.33
1480.09
1517.43
1553.96
1589.22
1622.7
1653.82
1681.94
1706.36
1726.34
1741.14
1749.99
1752.2
1747.15
1734.36
1713.5
1684.48
1647.4
1602.66
1550.85
1492.83
1429.59
1362.26
1292.22
1220.59
1148.87
1080.36
1016.72
965.172
916.89
870.765
826.802
785.117
745.787
708.823
674.195
641.839
611.671
583.586
557.46
533.165
510.576
489.57
470.029
451.84
434.9
419.109
404.375
390.613
377.744
365.696
354.403
343.807
333.852
324.488
315.67
307.358
299.515
292.104
285.094
278.458
272.169
266.2
260.528
255.133
249.991
245.08
240.379
235.862
231.503
227.268
223.113
218.978
214.77
210.547
206.148
201.219
194.214
13.0466
7.32737
7.04758
7.89867
9.20422
10.881
12.936
15.3968
18.2215
21.3531
24.7377
28.3348
32.1164
36.0616
40.1486
44.3615
48.6886
53.1202
57.6489
62.2682
66.973
71.7587
76.6216
81.5581
86.5649
91.639
96.7773
101.977
107.234
112.546
117.909
123.32
128.776
134.272
139.805
145.372
150.968
156.59
162.235
167.897
173.574
179.262
184.956
190.654
196.352
202.047
207.735
213.414
219.081
224.734
230.37
235.99
241.59
247.17
252.73
258.27
263.791
269.294
274.782
280.256
285.722
291.181
296.641
302.106
307.583
313.08
318.605
324.168
329.778
335.447
341.186
347.008
352.926
358.954
365.104
371.393
377.834
384.442
391.231
398.217
405.414
412.836
420.496
428.408
436.584
445.037
453.779
462.82
472.173
481.849
491.86
502.22
512.943
524.049
535.56
547.507
559.926
572.862
586.544
600.536
614.717
629.015
643.348
657.62
671.711
685.486
698.785
711.423
723.194
733.865
743.185
750.885
756.686
760.31
761.489
759.984
755.597
748.188
737.691
724.119
707.57
688.23
666.359
642.276
616.343
588.97
560.551
531.177
502.809
475.921
451.633
428.679
406.786
385.942
366.179
347.516
329.954
313.477
298.054
283.643
270.194
257.653
245.966
235.077
224.93
215.472
206.654
198.425
190.742
183.562
176.846
170.557
164.663
159.133
153.938
149.053
144.455
140.122
136.034
132.173
128.523
125.068
121.794
118.69
115.742
112.941
110.276
107.739
105.319
103.009
100.801
98.6888
96.664
94.7203
92.853
91.0633
89.4572
88.1574
87.5321
89.0979
24.567
12.3715
11.1634
11.5885
12.7252
14.3617
16.4255
18.8696
21.6372
24.6639
27.8917
31.2755
34.7825
38.3894
42.0793
45.8403
49.6642
53.5456
57.4808
61.4674
65.5038
69.5892
73.723
77.9047
82.1341
86.4106
90.7335
95.1021
99.5152
103.971
108.469
113.007
117.582
122.192
126.836
131.51
136.213
140.94
145.69
150.459
155.246
160.046
164.857
169.676
174.502
179.33
184.159
188.987
193.811
198.63
203.441
208.243
213.036
217.817
222.587
227.344
232.09
236.823
241.545
246.256
250.959
255.654
260.344
265.031
269.719
274.411
279.11
283.822
288.551
293.301
298.08
302.893
307.746
312.645
317.599
322.613
327.697
332.857
338.102
343.44
348.88
354.43
360.099
365.898
371.836
377.923
384.17
390.588
397.19
403.989
410.998
418.232
425.707
433.44
441.449
449.754
458.375
467.338
476.617
486.102
495.747
505.516
515.364
525.237
535.065
544.764
554.23
563.341
571.953
579.898
586.992
593.028
597.785
601.036
602.554
602.125
599.563
594.72
587.505
577.889
565.91
551.674
535.351
517.156
497.334
476.157
453.861
431.439
409.558
388.503
368.56
349.517
331.327
314.011
297.599
282.109
267.54
253.877
241.093
229.151
218.01
207.623
197.943
188.925
180.52
172.685
165.376
158.555
152.183
146.225
140.649
135.424
130.524
125.924
121.599
117.529
113.695
110.078
106.663
103.434
100.378
97.4825
94.7362
92.1288
89.6506
87.2929
85.0476
82.9075
80.8659
78.9168
77.0548
75.2753
73.575
71.9521
70.4082
68.9539
67.6486
66.6002
66.0566
66.7045
36.6539
17.8762
15.3291
15.3343
16.3023
17.8595
19.8698
22.2547
24.948
27.8874
31.0175
34.2936
37.6826
41.1605
44.7111
48.3237
51.9914
55.7103
59.4783
63.2946
67.159
71.0721
75.0345
79.0468
83.1097
87.2234
91.388
95.6033
99.8686
104.183
108.545
112.954
117.407
121.902
126.437
131.01
135.619
140.259
144.929
149.625
154.345
159.086
163.845
168.62
173.406
178.202
183.005
187.813
192.622
197.432
202.239
207.041
211.838
216.626
221.405
226.173
230.929
235.671
240.4
245.114
249.812
254.495
259.162
263.814
268.451
273.073
277.681
282.276
286.86
291.434
295.999
300.559
305.115
309.669
314.226
318.788
323.359
327.944
332.547
337.173
341.829
346.52
351.255
356.041
360.888
365.806
370.806
375.901
381.105
386.433
391.901
397.527
403.328
409.325
415.538
421.986
428.688
435.658
442.855
450.254
457.84
465.598
473.508
481.539
489.649
497.78
505.858
513.789
521.456
528.717
535.408
541.34
546.3
550.061
552.386
553.042
551.812
548.51
543.001
535.208
525.124
512.812
498.404
482.072
464.003
444.703
424.747
404.614
384.733
365.352
346.64
328.631
311.374
294.924
279.325
264.599
250.751
237.767
225.622
214.283
203.708
193.853
184.673
176.122
168.156
160.731
153.806
147.343
141.305
135.659
130.373
125.42
120.773
116.408
112.303
108.437
104.793
101.354
98.1044
95.0299
92.1179
89.3568
86.7359
84.2454
81.8764
79.6209
77.4714
75.4212
73.4642
71.5952
69.8095
68.1036
66.4751
64.9235
63.4524
62.0735
60.8262
59.7921
59.1245
59.1316
50.0668
23.0474
19.154
18.7322
19.5138
20.9634
22.8875
25.185
27.7843
30.6254
33.6577
36.8398
40.1399
43.5349
47.0091
50.5518
54.1569
57.8209
61.542
65.3202
69.1559
73.0501
77.0038
81.0181
85.0939
89.2317
93.4317
97.6939
102.018
106.402
110.845
115.346
119.903
124.513
129.174
133.884
138.638
143.435
148.271
153.143
158.047
162.981
167.942
172.925
177.928
182.948
187.981
193.025
198.077
203.133
208.191
213.248
218.302
223.35
228.389
233.416
238.43
243.428
248.408
253.367
258.303
263.213
268.096
272.949
277.771
282.559
287.311
292.026
296.701
301.336
305.929
310.479
314.985
319.446
323.863
328.235
332.564
336.851
341.099
345.309
349.487
353.636
357.764
361.877
365.985
370.097
374.225
378.384
382.588
386.854
391.203
395.653
400.228
404.95
409.845
414.938
420.251
425.789
431.539
437.501
443.68
450.08
456.697
463.52
470.53
477.69
484.949
492.237
499.458
506.492
513.188
519.368
524.822
529.313
532.586
534.374
534.418
532.479
528.366
521.944
513.156
502.022
488.654
473.159
456.121
437.958
419.095
399.925
380.795
361.954
343.576
325.779
308.665
292.316
276.789
262.117
248.311
235.363
223.25
211.94
201.392
191.565
182.412
173.888
165.948
158.548
151.646
145.205
139.187
133.56
128.291
123.352
118.717
114.362
110.264
106.405
102.765
99.3274
96.0774
93.0011
90.0857
87.3196
84.6924
82.1944
79.8167
77.5516
75.3917
73.3306
71.3624
69.4822
67.6855
65.9693
64.3317
62.7731
61.2974
59.9159
58.6573
57.5825
56.7864
56.4155
63.1846
27.7864
22.488
21.6117
22.1887
23.5153
25.3402
27.5405
30.0391
32.7779
35.7105
38.7994
42.0158
45.3382
48.7516
52.246
55.8155
59.4566
63.1682
66.9501
70.8031
74.7284
78.7271
82.8005
86.9495
91.1748
95.4765
99.8546
104.308
108.837
113.438
118.111
122.853
127.662
132.535
137.468
142.459
147.505
152.601
157.744
162.931
168.158
173.421
178.717
184.041
189.391
194.762
200.151
205.555
210.97
216.391
221.817
227.243
232.665
238.08
243.485
248.876
254.249
259.6
264.925
270.22
275.481
280.704
285.884
291.018
296.101
301.127
306.094
310.996
315.829
320.589
325.271
329.872
334.389
338.818
343.158
347.405
351.559
355.62
359.588
363.466
367.257
370.964
374.595
378.158
381.662
385.119
388.544
391.953
395.364
398.798
402.279
405.831
409.484
413.264
417.204
421.333
425.653
430.17
434.9
439.86
445.069
450.538
456.275
462.278
468.534
475.016
481.677
488.447
495.228
501.893
508.279
514.186
519.373
523.57
526.477
527.788
527.204
524.462
519.356
511.767
501.652
489.164
474.667
458.547
441.193
422.997
404.326
385.51
366.811
348.437
330.55
313.286
296.748
281.012
266.12
252.091
238.923
226.597
215.083
204.343
194.335
185.011
176.328
168.238
160.697
153.665
147.1
140.965
135.228
129.854
124.816
120.086
115.64
111.456
107.513
103.792
100.277
96.9517
93.8025
90.8164
87.9817
85.2878
82.7251
80.2846
77.9584
75.7393
73.6208
71.5971
69.6634
67.8155
66.0505
64.3669
62.7654
61.2499
59.8309
58.5305
57.3921
56.4761
55.8549
74.8643
31.8273
25.2069
23.8857
24.2536
25.4511
27.1725
29.2741
31.6723
34.3098
37.1432
40.1388
43.2707
46.5197
49.8722
53.3189
56.8544
60.4757
64.1816
67.9724
71.8488
75.8122
79.864
84.0054
88.2376
92.5612
96.9765
101.483
106.081
110.769
115.545
120.407
125.353
130.381
135.487
140.668
145.921
151.242
156.627
162.072
167.574
173.128
178.731
184.377
190.064
195.786
201.541
207.322
213.128
218.953
224.792
230.643
236.5
242.359
248.216
254.065
259.902
265.722
271.52
277.289
283.025
288.721
294.371
299.97
305.509
310.984
316.386
321.709
326.945
332.088
337.13
342.065
346.886
351.586
356.16
360.603
364.909
369.075
373.098
376.977
380.711
384.302
387.753
391.067
394.252
397.318
400.274
403.135
405.917
408.639
411.323
413.993
416.677
419.405
422.209
425.124
428.185
431.394
434.768
438.331
442.11
446.132
450.423
455.006
459.896
465.102
470.62
476.431
482.495
488.746
495.088
501.389
507.473
513.114
518.037
521.924
524.423
525.172
523.829
520.101
513.769
504.898
493.642
480.265
465.099
448.515
430.891
412.598
393.974
375.308
356.841
338.773
321.267
304.447
288.405
273.196
258.847
245.362
232.728
220.918
209.895
199.617
190.039
181.115
172.799
165.044
157.81
151.054
144.74
138.831
133.296
128.104
123.227
118.641
114.323
110.252
106.409
102.776
99.3375
96.0793
92.9882
90.0523
87.2608
84.6037
82.0722
79.6581
77.3541
75.1538
73.0514
71.042
69.1217
67.2876
65.5384
63.8748
62.3009
60.8256
59.4664
58.2534
57.2247
56.4172
84.4664
35.0572
27.2813
25.5484
25.7106
26.7755
28.3899
30.3913
32.6893
35.2259
37.9596
40.8597
43.9031
47.0726
50.3562
53.7459
57.2368
60.8264
64.5139
68.2997
72.185
76.1713
80.2602
84.4531
88.7513
93.1557
97.6668
102.285
107.008
111.838
116.77
121.805
126.939
132.171
137.496
142.911
148.414
154
159.665
165.406
171.218
177.096
183.038
189.037
195.09
201.193
207.34
213.527
219.751
226.005
232.285
238.587
244.905
251.234
257.568
263.903
270.231
276.547
282.844
289.115
295.353
301.551
307.7
313.792
319.818
325.77
331.638
337.413
343.085
348.644
354.08
359.385
364.547
369.558
374.41
379.093
383.602
387.928
392.067
396.014
399.767
403.325
406.689
409.86
412.845
415.651
418.287
420.766
423.103
425.316
427.427
429.46
431.442
433.404
435.379
437.404
439.515
441.714
444.02
446.461
449.069
451.875
454.915
458.22
461.821
465.744
470.006
474.619
479.576
484.85
490.387
496.104
501.871
507.499
512.739
517.276
520.73
522.686
522.706
520.435
515.672
508.369
498.596
486.54
472.488
456.788
439.818
421.96
403.574
384.981
366.458
348.237
330.509
313.421
297.078
281.551
266.876
253.065
240.11
227.987
216.662
206.094
196.24
187.052
178.485
170.493
163.033
156.063
149.544
143.442
137.721
132.353
127.308
122.561
118.089
113.87
109.885
106.115
102.546
99.1616
95.949
92.8959
89.9913
87.2252
84.5885
82.073
79.6712
77.3766
75.1835
73.0869
71.0831
69.1691
67.3437
65.6078
63.965
62.4229
60.9952
59.7021
58.5665
57.6081
91.7048
37.4449
28.7305
26.6375
26.6043
27.5347
29.0376
30.9346
33.1293
35.562
38.1924
40.9916
43.9387
47.0185
50.2205
53.5377
56.9661
60.5039
64.1506
67.9071
71.7749
75.7558
79.8517
84.0645
88.3957
92.8465
97.4177
102.11
106.922
111.855
116.907
122.075
127.359
132.756
138.262
143.876
149.593
155.409
161.322
167.327
173.419
179.595
185.85
192.18
198.581
205.047
211.574
218.157
224.792
231.473
238.195
244.953
251.742
258.555
265.385
272.228
279.076
285.921
292.756
299.573
306.363
313.117
319.825
326.477
333.063
339.571
345.99
352.308
358.512
364.591
370.532
376.323
381.95
387.402
392.667
397.735
402.594
407.235
411.65
415.833
419.778
423.481
426.942
430.159
433.138
435.882
438.399
440.7
442.799
444.712
446.458
448.06
449.543
450.937
452.273
453.586
454.908
456.239
457.596
459.003
460.491
462.091
463.839
465.771
467.922
470.33
473.03
476.056
479.435
483.182
487.295
491.754
496.504
501.421
506.323
510.941
514.888
517.744
519.012
518.304
515.299
509.805
501.771
491.293
478.595
463.995
447.871
430.617
412.622
394.24
375.785
357.522
339.67
322.397
305.828
290.047
275.102
261.012
247.775
235.373
223.774
212.94
202.828
193.392
184.586
176.365
168.685
161.504
154.785
148.489
142.583
137.037
131.822
126.911
122.282
117.911
113.78
109.87
106.165
102.649
99.3103
96.1351
93.1126
90.2326
87.4858
84.864
82.3596
79.966
77.6774
75.4891
73.3971
71.3987
69.4926
67.6795
65.9626
64.3483
62.8469
61.4722
60.2351
59.1477
96.5028
39.0078
29.6009
27.2129
27.0015
27.7981
29.1845
30.9709
33.0558
35.3781
37.8978
40.5874
43.4273
46.404
49.508
52.7336
56.0775
59.5385
63.1168
66.8136
70.6309
74.5709
78.6359
82.8283
87.1501
91.6031
96.1885
100.907
105.76
110.746
115.865
121.116
126.498
132.008
137.644
143.404
149.284
155.282
161.394
167.615
173.944
180.374
186.903
193.526
200.238
207.036
213.914
220.868
227.892
234.983
242.133
249.339
256.593
263.89
271.223
278.584
285.967
293.363
300.763
308.158
315.538
322.894
330.212
337.482
344.692
351.827
358.875
365.821
372.651
379.349
385.901
392.291
398.504
404.525
410.34
415.933
421.293
426.406
431.262
435.851
440.165
444.199
447.947
451.409
454.585
457.477
460.092
462.438
464.527
466.371
467.989
469.398
470.623
471.687
472.621
473.453
474.205
474.872
475.462
475.993
476.488
476.971
477.47
478.015
478.639
479.376
480.267
481.361
482.709
484.36
486.37
488.789
491.658
494.955
498.603
502.461
506.182
509.389
511.607
512.344
511.131
507.603
501.547
492.927
481.877
468.667
453.661
437.264
419.891
401.931
383.735
365.602
347.78
330.462
313.793
297.869
282.753
268.473
255.034
242.423
230.613
219.567
209.245
199.604
190.596
182.179
174.308
166.942
160.043
153.573
147.499
141.789
136.416
131.352
126.575
122.061
117.79
113.746
109.91
106.268
102.807
99.5126
96.375
93.3834
90.5286
87.802
85.1963
82.7048
80.3217
78.0421
75.8622
73.7794
71.7922
69.9012
68.109
66.4208
64.8442
63.3889
62.0558
60.855
98.9224
39.7961
29.9546
27.346
26.9797
27.6466
28.9129
30.5818
32.5487
34.7517
37.151
39.7197
42.4394
45.2975
48.2857
51.3989
54.6347
57.9923
61.4725
65.0771
68.8084
72.6693
76.6626
80.7912
85.0578
89.4648
94.0142
98.7075
103.546
108.53
113.661
118.937
124.358
129.923
135.631
141.479
147.465
153.586
159.841
166.225
172.736
179.37
186.123
192.992
199.973
207.061
214.253
221.543
228.927
236.401
243.957
251.592
259.299
267.071
274.901
282.783
290.707
298.666
306.648
314.646
322.647
330.639
338.61
346.547
354.435
362.26
370.006
377.656
385.194
392.602
399.863
406.958
413.87
420.58
427.071
433.326
439.329
445.064
450.519
455.68
460.536
465.08
469.304
473.205
476.781
480.032
482.963
485.579
487.89
489.906
491.642
493.113
494.338
495.337
496.135
496.756
497.199
497.454
497.519
497.399
497.104
496.645
496.035
495.289
494.422
493.456
492.42
491.356
490.323
489.395
488.669
488.263
488.316
488.959
490.258
492.216
494.698
497.423
499.953
501.727
502.131
500.597
496.698
490.212
481.135
469.655
456.1
440.876
424.419
407.152
389.461
371.682
354.093
336.913
320.307
304.391
289.239
274.891
261.359
248.638
236.704
225.527
215.067
205.283
196.131
187.568
179.552
172.042
164.999
158.388
152.174
146.328
140.821
135.626
130.719
126.079
121.686
117.521
113.568
109.811
106.238
102.835
99.5913
96.4964
93.5409
90.7166
88.0159
85.4321
82.9596
80.5935
78.33
76.1664
74.1013
72.1349
70.2693
68.5084
66.8579
65.3238
63.9024
62.6009
99.1271
39.8816
29.8617
27.1122
26.6195
27.165
28.3102
29.8561
31.6974
33.772
36.0405
38.4768
41.0632
43.7878
46.6428
49.624
52.7291
55.9581
59.3123
62.7938
66.4056
70.151
74.0336
78.0568
82.2242
86.5389
91.0038
95.6215
100.394
105.323
110.41
115.655
121.059
126.622
132.344
138.222
144.257
150.447
156.789
163.281
169.922
176.709
183.638
190.706
197.911
205.249
212.715
220.307
228.018
235.846
243.784
251.827
259.969
268.204
276.524
284.922
293.389
301.916
310.494
319.11
327.753
336.41
345.068
353.71
362.323
370.888
379.389
387.808
396.125
404.32
412.374
420.265
427.973
435.478
442.758
449.794
456.567
463.059
469.253
475.134
480.689
485.906
490.777
495.295
499.457
503.261
506.708
509.804
512.554
514.967
517.055
518.83
520.306
521.499
522.427
523.108
523.51
523.616
523.414
522.894
522.051
520.878
519.366
517.505
515.288
512.707
509.763
506.471
502.871
499.059
495.14
491.285
487.707
484.68
482.463
481.277
481.235
482.27
484.081
486.128
487.688
487.978
486.304
482.185
475.411
466.034
454.311
440.63
425.436
409.181
392.288
375.129
358.014
341.191
324.847
309.118
294.093
279.824
266.333
253.622
241.674
230.462
219.952
210.106
200.882
192.239
184.136
176.535
169.397
162.688
156.376
150.429
144.82
139.523
134.515
129.775
125.281
121.017
116.966
113.113
109.445
105.948
102.612
99.4272
96.3833
93.4724
90.6871
88.0208
85.4678
83.0234
80.6838
78.4462
76.3092
74.2728
72.3383
70.5089
68.7881
67.1798
65.678
64.2869
97.3548
39.3492
29.395
26.5857
25.9998
26.4369
27.4642
28.8852
30.5961
32.5358
34.6658
36.9607
39.4034
41.9827
44.6914
47.525
50.4819
53.5623
56.768
60.1016
63.5667
67.1671
70.907
74.7909
78.8229
83.0072
87.3478
91.8482
96.5117
101.341
106.339
111.508
116.848
122.362
128.05
133.912
139.949
146.16
152.545
159.102
165.83
172.728
179.793
187.024
194.418
201.972
209.683
217.548
225.562
233.722
242.022
250.458
259.023
267.711
276.515
285.428
294.439
303.54
312.72
321.969
331.273
340.618
349.987
359.366
368.737
378.083
387.385
396.621
405.771
414.814
423.726
432.484
441.066
449.447
457.606
465.518
473.162
480.518
487.566
494.287
500.667
506.691
512.349
517.631
522.531
527.047
531.178
534.926
538.295
541.293
543.927
546.207
548.142
549.743
551.025
551.989
552.571
552.745
552.49
551.784
550.602
548.917
546.696
543.903
540.497
536.44
531.699
526.259
520.129
513.369
506.08
498.446
490.733
483.301
476.575
471.013
467.03
464.888
464.578
465.732
467.626
469.295
469.737
468.128
463.959
457.07
447.595
435.866
422.325
407.446
391.684
375.446
359.079
342.86
327.004
311.665
296.95
282.927
269.627
257.062
245.224
234.09
223.632
213.815
204.602
195.955
187.835
180.205
173.029
166.275
159.911
153.907
148.237
142.876
137.8
132.99
128.425
124.089
119.965
116.038
112.296
108.725
105.316
102.058
98.9414
95.9589
93.1029
90.367
87.7456
85.234
82.8286
80.5265
78.3263
76.2275
74.2312
72.3395
70.5546
68.8785
67.3048
65.8346
93.8986
38.297
28.6307
25.8408
25.1977
25.5441
26.4623
27.7623
29.3437
31.1476
33.1368
35.2871
37.5821
40.0115
42.5694
45.2494
48.0498
50.9715
54.0169
57.1891
60.4922
63.9309
67.5099
71.2346
75.1101
79.1416
83.3343
87.6929
92.222
96.9258
101.808
106.873
112.123
117.561
123.189
129.009
135.022
141.23
147.634
154.233
161.027
168.017
175.2
182.577
190.146
197.903
205.848
213.978
222.288
230.776
239.436
248.263
257.253
266.398
275.691
285.124
294.689
304.374
314.169
324.061
334.038
344.084
354.183
364.318
374.471
384.623
394.752
404.837
414.855
424.782
434.593
444.263
453.767
463.079
472.173
481.024
489.607
497.898
505.876
513.521
520.813
527.736
534.277
540.424
546.171
551.51
556.44
560.961
565.074
568.785
572.096
575.015
577.546
579.698
581.476
582.854
583.737
584.099
583.909
583.13
581.721
579.635
576.815
573.198
568.715
563.296
556.876
549.409
540.87
531.272
520.69
509.282
497.311
485.162
473.351
462.513
453.353
446.53
442.479
441.222
442.234
444.488
446.685
447.58
446.253
442.223
435.423
426.087
414.624
401.516
387.247
372.261
356.94
341.595
326.468
311.739
297.534
283.936
270.991
258.72
247.124
236.189
225.894
216.207
207.097
198.528
190.467
182.878
175.728
168.987
162.625
156.614
150.928
145.544
140.44
135.596
130.994
126.616
122.447
118.474
114.683
111.062
107.601
104.29
101.121
98.0848
95.1749
92.3852
89.71
87.145
84.6864
82.3316
80.079
77.9279
75.8788
73.9331
72.0919
70.3561
68.7186
67.1812
89.3941
36.9518
27.6864
24.9661
24.2957
24.5721
25.3963
26.5872
28.0492
29.7261
31.5825
33.5949
35.7479
38.0311
40.4378
42.9642
45.609
48.373
51.2588
54.2699
57.411
60.6873
64.1046
67.669
71.3868
75.2642
79.3078
83.5235
87.9175
92.4955
97.2628
102.225
107.386
112.75
118.322
124.104
130.1
136.313
142.744
149.395
156.267
163.361
170.678
178.216
185.976
193.956
202.155
210.569
219.197
228.034
237.076
246.318
255.755
265.379
275.183
285.159
295.297
305.586
316.015
326.571
337.238
348.002
358.847
369.752
380.701
391.671
402.64
413.586
424.484
435.308
446.033
456.631
467.074
477.335
487.386
497.199
506.747
516.004
524.946
533.55
541.794
549.659
557.131
564.194
570.839
577.057
582.844
588.197
593.114
597.596
601.643
605.256
608.437
611.19
613.502
615.302
616.489
617.033
616.892
616.016
614.349
611.824
608.363
603.88
598.284
591.478
583.376
573.902
563.006
550.672
536.94
521.935
505.882
489.139
472.221
455.825
440.831
428.232
418.97
413.654
412.251
413.928
417.207
420.389
422.021
421.173
417.471
410.978
402.034
391.112
378.717
365.329
351.367
337.176
323.033
309.142
295.653
282.666
270.244
258.42
247.206
236.598
226.58
217.128
208.216
199.815
191.892
184.418
177.363
170.698
164.395
158.43
152.778
147.417
142.327
137.489
132.886
128.501
124.32
120.33
116.518
112.874
109.386
106.046
102.845
99.7757
96.8312
94.0056
91.2937
88.691
86.1941
83.8003
81.5079
79.3161
77.2251
75.2355
73.3477
71.5618
69.8703
68.2768
84.1644
35.3814
26.6235
24.0207
23.3556
23.5875
24.3402
25.4427
26.8047
28.3734
30.1154
32.0086
34.0383
36.1946
38.4716
40.8659
43.377
46.006
48.7558
51.6307
54.6359
57.7774
61.062
64.4968
68.0891
71.8467
75.7771
79.8881
84.1871
88.6814
93.378
98.2837
103.405
108.747
114.316
120.117
126.154
132.432
138.953
145.72
152.736
160.002
167.521
175.291
183.313
191.586
200.108
208.878
217.892
227.147
236.637
246.358
256.303
266.464
276.833
287.402
298.158
309.091
320.187
331.434
342.815
354.315
365.914
377.596
389.338
401.119
412.917
424.708
436.465
448.162
459.773
471.268
482.619
493.796
504.77
515.512
525.993
536.184
546.06
555.594
564.763
573.546
581.924
589.882
597.405
604.483
611.107
617.271
622.968
628.195
632.945
637.212
640.995
644.287
647.051
649.131
650.479
651.05
650.789
649.634
647.509
644.33
640
634.416
627.467
619.043
609.04
597.373
583.979
568.834
551.97
533.492
513.6
492.613
470.998
449.41
428.737
410.11
394.836
384.15
378.772
378.444
381.805
386.79
391.331
393.894
393.664
390.446
384.457
376.134
365.994
354.548
342.255
329.499
316.591
303.765
291.197
279.007
267.277
256.054
245.362
235.207
225.582
216.472
207.857
199.711
192.011
184.728
177.836
171.312
165.129
159.265
153.699
148.409
143.379
138.589
134.023
129.669
125.51
121.536
117.734
114.093
110.606
107.262
104.053
100.973
98.015
95.1735
92.4433
89.8205
87.3016
84.8841
82.5663
80.3472
78.2265
76.2046
74.2813
72.4561
70.7217
69.0822
78.2892
33.5376
25.4273
23.0166
22.4112
22.6462
23.3718
24.4294
25.7349
27.2393
28.9115
30.7313
32.6851
34.7641
36.9632
39.28
41.7147
44.2692
46.9471
49.7536
52.6946
55.7773
59.0095
62.3994
65.9558
69.6876
73.6039
77.7139
82.0266
86.5508
91.2951
96.2679
101.477
106.929
112.632
118.592
124.814
131.304
138.065
145.101
152.416
160.01
167.886
176.045
184.484
193.204
202.202
211.475
221.019
230.828
240.898
251.221
261.789
272.592
283.622
294.866
306.313
317.949
329.76
341.73
353.844
366.083
378.43
390.864
403.364
415.909
428.475
441.038
453.573
466.052
478.449
490.736
502.882
514.859
526.636
538.184
549.472
560.472
571.155
581.493
591.462
601.039
610.2
618.929
627.206
635.019
642.355
649.2
655.545
661.375
666.676
671.436
675.643
679.263
682.182
684.271
685.485
685.769
685.055
683.263
680.303
676.07
670.452
663.33
654.583
644.091
631.75
617.476
601.219
582.969
562.777
540.768
517.152
492.24
466.466
440.416
414.879
390.912
369.887
353.42
342.997
339.283
341.505
347.531
354.701
360.752
364.273
364.697
362.05
356.701
349.164
339.978
329.641
318.581
307.142
295.596
284.142
272.927
262.049
251.574
241.538
231.959
222.841
214.177
205.954
198.154
190.757
183.74
177.084
170.765
164.763
159.057
153.629
148.461
143.535
138.837
134.351
130.064
125.963
122.038
118.278
114.672
111.213
107.891
104.7
101.633
98.6843
95.848
93.1197
90.4955
87.9724
85.5477
83.2199
80.9879
78.8513
76.81
74.8634
73.0109
71.2455
69.5716
72.0694
31.4515
24.1187
21.9977
21.5388
21.8607
22.6435
23.7417
25.0782
26.6083
28.304
30.1473
32.1266
34.2349
36.4687
38.827
41.3114
43.925
46.6728
49.5611
52.5972
55.7894
59.1468
62.6791
66.3964
70.309
74.4274
78.7622
83.3237
88.1222
93.1675
98.4689
104.035
109.875
115.995
122.403
129.104
136.103
143.405
151.012
158.926
167.149
175.68
184.519
193.662
203.107
212.849
222.882
233.199
243.793
254.653
265.771
277.134
288.731
300.548
312.571
324.786
337.177
349.727
362.42
375.238
388.163
401.177
414.258
427.389
440.546
453.709
466.854
479.959
492.998
505.946
518.777
531.463
543.975
556.287
568.367
580.186
591.717
602.929
613.795
624.287
634.381
644.051
653.275
662.033
670.304
678.071
685.312
692.009
698.138
703.675