/*--------------------------------*- C++ -*----------------------------------*\
| =========                 |                                                 |
| \\      /  F ield         | OpenFOAM: The Open Source CFD Toolbox           |
|  \\    /   O peration     | Version:  2.2.x                                 |
|   \\  /    A nd           | Web:      www.OpenFOAM.org                      |
|    \\/     M anipulation  |                                                 |
\*---------------------------------------------------------------------------*/
FoamFile
{
    version     2.0;
    format      ascii;
    class       volScalarField;
    location    "300";
    object      k;
}
// * * * * * * * * * * * * * * * * * * * * * * * * * * * * * * * * * * * * * //

dimensions      [0 2 -2 0 0 0 0];

internalField   nonuniform List<scalar> 
12225
(
0.773254
1.11727
1.35408
1.50334
1.5908
1.63711
1.65694
1.66025
1.65352
1.64093
1.62512
1.60776
1.58987
1.57208
1.55477
1.53813
1.52202
1.50788
0.492803
0.515899
0.520066
0.519343
0.515977
0.511079
0.505611
0.500256
0.495436
0.49138
0.488193
0.485893
0.484454
0.483819
0.483939
0.48484
0.487126
0.490703
0.412015
0.424092
0.421854
0.414163
0.40422
0.393405
0.382455
0.371802
0.361704
0.352312
0.343702
0.335904
0.328912
0.322699
0.31723
0.31247
0.308381
0.304766
0.381869
0.385948
0.386336
0.383939
0.379747
0.374465
0.368561
0.362349
0.356041
0.349784
0.343676
0.337786
0.332156
0.326815
0.321774
0.31704
0.312601
0.308455
0.375243
0.375519
0.374934
0.373412
0.371104
0.368202
0.364879
0.361279
0.357513
0.353667
0.349804
0.345973
0.34221
0.33854
0.334984
0.331553
0.328255
0.325114
0.373469
0.372204
0.370885
0.36933
0.367502
0.365427
0.363151
0.360724
0.358194
0.355601
0.352978
0.350353
0.347747
0.345178
0.342659
0.340201
0.337812
0.335518
0.372982
0.371101
0.369349
0.367625
0.365874
0.364072
0.362215
0.360309
0.358368
0.356406
0.354436
0.352471
0.350522
0.348599
0.346708
0.344856
0.343051
0.341312
0.372867
0.370792
0.368859
0.367022
0.365243
0.363496
0.361766
0.360046
0.358337
0.356638
0.354956
0.353293
0.351655
0.350046
0.348469
0.346928
0.345426
0.343983
0.372829
0.37068
0.368664
0.366758
0.364943
0.363199
0.361511
0.35987
0.358269
0.356704
0.355174
0.353678
0.352217
0.350791
0.3494
0.348047
0.346733
0.345473
0.372814
0.370635
0.368578
0.366632
0.364787
0.36303
0.361351
0.35974
0.358191
0.356696
0.355252
0.353856
0.352505
0.351197
0.349931
0.348706
0.347522
0.346391
0.372807
0.370616
0.368542
0.366577
0.364714
0.362944
0.36126
0.359656
0.358123
0.356658
0.355254
0.353908
0.352615
0.351373
0.350179
0.349031
0.347926
0.346878
0.372803
0.370607
0.368526
0.366552
0.36468
0.362901
0.361212
0.359605
0.358075
0.356616
0.355226
0.353898
0.35263
0.351417
0.350256
0.349145
0.348082
0.347077
0.3728
0.370601
0.368516
0.366539
0.364661
0.362879
0.361184
0.359574
0.358042
0.356583
0.355194
0.35387
0.352608
0.351404
0.350255
0.349157
0.348109
0.347121
0.372798
0.370597
0.36851
0.36653
0.36465
0.362864
0.361167
0.359553
0.358019
0.356558
0.355167
0.353843
0.35258
0.351377
0.350229
0.349134
0.348089
0.347106
0.372796
0.370594
0.368505
0.366523
0.364641
0.362853
0.361154
0.359539
0.358002
0.356539
0.355147
0.35382
0.352556
0.351351
0.350202
0.349106
0.348061
0.347077
0.372795
0.370592
0.368502
0.366518
0.364635
0.362846
0.361145
0.359528
0.357989
0.356525
0.355131
0.353803
0.352537
0.351331
0.35018
0.349083
0.348037
0.347052
0.372794
0.37059
0.3685
0.366515
0.364631
0.362841
0.361139
0.359521
0.357981
0.356516
0.35512
0.353791
0.352524
0.351317
0.350165
0.349067
0.34802
0.347035
0.372794
0.37059
0.368499
0.366514
0.364629
0.362838
0.361136
0.359517
0.357977
0.356511
0.355115
0.353785
0.352518
0.35131
0.350158
0.349059
0.348012
0.347026
0.372794
0.37059
0.368499
0.366515
0.36463
0.362839
0.361137
0.359518
0.357978
0.356512
0.355116
0.353786
0.352519
0.351311
0.350159
0.34906
0.348013
0.347027
0.372794
0.370591
0.368501
0.366517
0.364633
0.362842
0.361141
0.359523
0.357983
0.356518
0.355122
0.353793
0.352526
0.351319
0.350167
0.349069
0.348023
0.347037
0.372795
0.370593
0.368504
0.366521
0.364638
0.362849
0.361149
0.359533
0.357996
0.356532
0.355139
0.353812
0.352547
0.351341
0.35019
0.349093
0.348047
0.347061
0.372797
0.370596
0.368509
0.36653
0.364652
0.36287
0.361177
0.359567
0.358037
0.35658
0.355191
0.353868
0.352606
0.351401
0.35025
0.349149
0.348099
0.347107
0.3728
0.370606
0.368532
0.366571
0.364714
0.362954
0.361284
0.359695
0.35818
0.356734
0.355351
0.354027
0.352757
0.351538
0.350367
0.349241
0.34816
0.347133
0.372815
0.370662
0.368649
0.366761
0.364981
0.36329
0.361674
0.360121
0.35862
0.357167
0.355757
0.354386
0.353054
0.351758
0.350498
0.349274
0.348087
0.346949
0.372911
0.370959
0.369194
0.367544
0.365953
0.364385
0.362819
0.361248
0.359672
0.358093
0.356518
0.354951
0.353398
0.351865
0.350356
0.348875
0.347425
0.346025
0.373469
0.372366
0.371364
0.370238
0.368904
0.367358
0.365629
0.363758
0.361783
0.359739
0.357653
0.355548
0.353443
0.351353
0.349287
0.347256
0.345267
0.343342
0.376461
0.378228
0.378834
0.378173
0.37655
0.374272
0.371563
0.368578
0.365424
0.362175
0.358886
0.355596
0.352334
0.349123
0.345978
0.342914
0.339938
0.337073
0.392607
0.401343
0.402168
0.39952
0.395309
0.390346
0.385019
0.37953
0.374001
0.368511
0.363116
0.357859
0.35277
0.347872
0.343179
0.338701
0.334438
0.330402
0.438296
0.449781
0.450803
0.449572
0.447822
0.445843
0.443717
0.441492
0.439204
0.436891
0.434592
0.432341
0.430171
0.428105
0.42616
0.424341
0.422635
0.420983
0.544749
0.705345
0.836388
0.946131
1.042
1.12368
1.19171
1.24718
1.2915
1.32619
1.35269
1.37237
1.38643
1.39589
1.40166
1.40446
1.40493
1.40353
0.0192402
0.0317723
0.0395097
0.0449084
0.051202
0.0577181
0.0650776
0.075021
0.0860483
0.0981175
0.110972
0.124414
0.138362
0.152827
0.167635
0.182718
0.19803
0.213537
0.229209
0.245018
0.260942
0.276958
0.293046
0.309188
0.325367
0.341565
0.357769
0.373963
0.390133
0.406265
0.422347
0.438366
0.454311
0.47017
0.485933
0.501589
0.51713
0.532545
0.547828
0.562969
0.57796
0.592796
0.607469
0.621973
0.636303
0.650454
0.664422
0.678204
0.691796
0.705197
0.718406
0.731422
0.744244
0.756876
0.769319
0.781577
0.793655
0.80556
0.8173
0.828885
0.840327
0.851639
0.862836
0.873934
0.884953
0.895914
0.906839
0.917753
0.928685
0.939661
0.950714
0.961875
0.973177
0.984657
0.996348
1.00829
1.02051
1.03305
1.04594
1.05922
1.07292
1.08707
1.1017
1.11683
1.13249
1.14869
1.16546
1.18281
1.20074
1.21927
1.2384
1.25814
1.2785
1.2995
1.32116
1.34353
1.36669
1.3908
1.41612
1.44179
1.46763
1.49354
1.51935
1.54488
1.56993
1.59426
1.61759
1.63962
1.66
1.67836
1.69428
1.70733
1.71705
1.72299
1.7247
1.72179
1.71388
1.70072
1.68214
1.65808
1.62864
1.59405
1.55467
1.51098
1.4636
1.41326
1.36052
1.30647
1.25342
1.20169
1.15884
1.11898
1.08029
1.04274
1.00645
0.971577
0.938208
0.906392
0.876143
0.847453
0.820296
0.79463
0.770395
0.747524
0.725945
0.705585
0.686373
0.668239
0.651116
0.634936
0.619637
0.605161
0.591452
0.578458
0.56613
0.554424
0.5433
0.532717
0.522642
0.51304
0.503881
0.495138
0.486784
0.478793
0.471142
0.463809
0.456774
0.450011
0.443501
0.437218
0.431137
0.425227
0.419447
0.413746
0.408048
0.402238
0.396393
0.390298
0.383498
0.373998
0.0417952
0.0764492
0.101754
0.122547
0.139875
0.156558
0.174176
0.193628
0.215102
0.238289
0.262798
0.288332
0.314684
0.341708
0.369285
0.397328
0.425776
0.454576
0.483686
0.513068
0.542688
0.572516
0.602521
0.632677
0.662955
0.693329
0.723772
0.754259
0.784762
0.815256
0.845714
0.876111
0.906422
0.936621
0.966684
0.996589
1.02631
1.05583
1.08512
1.11416
1.14293
1.17141
1.19958
1.22743
1.25494
1.28209
1.30886
1.33525
1.36124
1.38682
1.41198
1.43671
1.461
1.48486
1.50827
1.53123
1.55375
1.57583
1.59748
1.6187
1.63951
1.65993
1.67996
1.69963
1.71898
1.73802
1.75679
1.77534
1.7937
1.81192
1.83006
1.84817
1.86631
1.88455
1.90297
1.92162
1.9406
1.95998
1.97984
2.00027
2.02137
2.04321
2.0659
2.08951
2.11415
2.13989
2.16684
2.19506
2.22466
2.2557
2.28826
2.32242
2.35823
2.39576
2.43506
2.47618
2.51916
2.56404
2.60993
2.65718
2.70579
2.75565
2.80656
2.85827
2.91047
2.96279
3.01476
3.06583
3.11536
3.1626
3.20672
3.24678
3.28178
3.31067
3.33238
3.34586
3.35015
3.34445
3.32811
3.30078
3.26236
3.21304
3.15333
3.08399
3.006
2.92055
2.82887
2.73142
2.63297
2.53456
2.4385
2.34435
2.25256
2.16367
2.07811
1.99617
1.91804
1.8438
1.77343
1.70689
1.64405
1.58478
1.52891
1.47627
1.42669
1.37997
1.33594
1.29443
1.25525
1.21825
1.18329
1.15021
1.11888
1.08919
1.06102
1.03425
1.00879
0.984562
0.961467
0.939433
0.918387
0.898264
0.879002
0.860545
0.84284
0.825837
0.80949
0.793755
0.77859
0.763955
0.749809
0.736112
0.72282
0.709888
0.697266
0.684893
0.672614
0.660481
0.648523
0.637745
0.0637262
0.125217
0.161798
0.18873
0.212609
0.236095
0.260637
0.286978
0.315306
0.345439
0.377068
0.409898
0.443694
0.478275
0.513507
0.549289
0.585546
0.622219
0.659261
0.69663
0.734293
0.772218
0.810375
0.848736
0.887276
0.925965
0.964776
1.00368
1.04265
1.08166
1.12068
1.15967
1.19861
1.23747
1.27621
1.31482
1.35325
1.39148
1.42948
1.46723
1.50469
1.54185
1.57867
1.61513
1.65121
1.68688
1.72214
1.75694
1.79129
1.82515
1.85852
1.89138
1.92372
1.95552
1.98679
2.0175
2.04766
2.07727
2.10632
2.13482
2.16277
2.19019
2.21707
2.24345
2.26934
2.29476
2.31974
2.34432
2.36852
2.3924
2.416
2.43937
2.46257
2.48566
2.50871
2.53178
2.55497
2.57834
2.602
2.62601
2.65049
2.67552
2.70121
2.72766
2.75497
2.78327
2.81264
2.84321
2.87508
2.90837
2.94317
2.9796
3.01775
3.05772
3.09959
3.14345
3.18934
3.23711
3.28649
3.33768
3.39068
3.4454
3.50169
3.55935
3.61808
3.67752
3.73718
3.79647
3.85469
3.91097
3.96432
4.01361
4.05758
4.09489
4.1241
4.1438
4.15264
4.14943
4.13319
4.10327
4.05938
4.00161
3.93046
3.84677
3.75167
3.64655
3.53274
3.41469
3.295
3.1751
3.05645
2.93969
2.82563
2.71503
2.60848
2.50637
2.40895
2.31632
2.2285
2.14542
2.06693
1.99286
1.92302
1.85717
1.7951
1.73657
1.68136
1.62926
1.58005
1.53352
1.48951
1.44782
1.40829
1.37078
1.33514
1.30124
1.26896
1.23818
1.20881
1.18075
1.15392
1.12822
1.10359
1.07996
1.05727
1.03544
1.01444
0.994206
0.974689
0.955845
0.93763
0.920003
0.902925
0.886361
0.870284
0.854679
0.8395
0.824982
0.811473
0.800497
0.0832013
0.169172
0.214478
0.248054
0.277635
0.306332
0.335755
0.366718
0.399514
0.4341
0.470272
0.507782
0.546402
0.585943
0.626258
0.667233
0.708784
0.750845
0.793364
0.836298
0.879612
0.923274
0.967255
1.01153
1.05606
1.10083
1.14581
1.19097
1.23627
1.28169
1.32719
1.37274
1.4183
1.46385
1.50933
1.55473
1.6
1.64512
1.69003
1.73472
1.77915
1.82329
1.8671
1.91055
1.95362
1.99628
2.03849
2.08025
2.12151
2.16226
2.20247
2.24213
2.28121
2.3197
2.35758
2.39483
2.43145
2.46743
2.50274
2.5374
2.57138
2.6047
2.63736
2.66935
2.70069
2.73138
2.76145
2.79091
2.81978
2.8481
2.87589
2.9032
2.93007
2.95655
2.98268
3.00854
3.03419
3.05969
3.08514
3.1106
3.13617
3.16194
3.18802
3.2145
3.24151
3.26915
3.29756
3.32685
3.35715
3.3886
3.42134
3.4555
3.49122
3.52862
3.56786
3.60904
3.65231
3.6974
3.74447
3.79364
3.84495
3.8984
3.95392
4.01138
4.07058
4.13122
4.1929
4.25507
4.31704
4.37797
4.43681
4.49233
4.54314
4.58767
4.62421
4.65102
4.66636
4.66862
4.65643
4.62874
4.58496
4.52495
4.4491
4.3582
4.2533
4.13715
4.013
3.88363
3.7515
3.61836
3.48571
3.35469
3.22641
3.1018
2.98158
2.86625
2.75612
2.65133
2.55191
2.4578
2.36885
2.28486
2.20561
2.13086
2.06035
1.99382
1.93102
1.8717
1.81563
1.76257
1.71233
1.6647
1.6195
1.57656
1.53572
1.49684
1.45977
1.42439
1.3906
1.35828
1.32733
1.29767
1.26922
1.24189
1.21561
1.19033
1.16598
1.14251
1.11985
1.09798
1.07683
1.05638
1.03659
1.01745
0.998933
0.981079
0.963918
0.947752
0.933008
0.920956
0.102419
0.20488
0.259221
0.299199
0.333938
0.367035
0.400313
0.434732
0.470725
0.508393
0.54765
0.588325
0.630229
0.67319
0.717063
0.761734
0.807113
0.85313
0.89973
0.946869
0.994509
1.04262
1.09117
1.14013
1.18947
1.23917
1.28918
1.33949
1.39006
1.44085
1.49182
1.54294
1.59417
1.64547
1.6968
1.74811
1.79937
1.85053
1.90156
1.95241
2.00305
2.05343
2.10352
2.15329
2.20269
2.25169
2.30025
2.34836
2.39596
2.44304
2.48957
2.53551
2.58084
2.62553
2.66956
2.7129
2.75554
2.79745
2.83861
2.87901
2.91862
2.95744
2.99544
3.03263
3.069
3.10453
3.13923
3.1731
3.20615
3.23839
3.26983
3.30049
3.33039
3.35958
3.38807
3.41593
3.44318
3.4699
3.49614
3.52197
3.54747
3.57273
3.59784
3.6229
3.64802
3.67333
3.69894
3.72499
3.75164
3.77902
3.80731
3.83666
3.86726
3.89927
3.93287
3.96823
4.00553
4.04468
4.08591
4.12939
4.17524
4.22355
4.27437
4.3277
4.38346
4.44148
4.50148
4.56307
4.62565
4.68847
4.75055
4.81066
4.86737
4.91895
4.96349
4.99892
5.02309
5.03393
5.02953
5.00835
4.96933
4.91199
4.83649
4.74328
4.63545
4.5156
4.3865
4.25082
4.11107
3.96927
3.82715
3.68621
3.5478
3.41302
3.28273
3.15754
3.03783
2.92381
2.81553
2.71295
2.61591
2.52423
2.43767
2.35595
2.27882
2.206
2.1372
2.07217
2.01065
1.95239
1.89718
1.84479
1.79503
1.74771
1.70267
1.65974
1.61878
1.57965
1.54224
1.50642
1.4721
1.43918
1.40756
1.37718
1.34794
1.31979
1.29266
1.26649
1.24123
1.21683
1.19325
1.17046
1.14842
1.12714
1.10663
1.08694
1.06816
1.05055
1.03454
1.02107
0.11962
0.233951
0.295791
0.341273
0.380492
0.417358
0.45385
0.491042
0.529493
0.569429
0.61088
0.653762
0.697947
0.743298
0.789691
0.83702
0.8852
0.93416
0.983848
1.03422
1.08523
1.13686
1.18907
1.24183
1.29511
1.34889
1.40312
1.45778
1.51283
1.56823
1.62393
1.67991
1.7361
1.79248
1.84898
1.90558
1.96221
2.01883
2.0754
2.13187
2.18819
2.24432
2.30021
2.35582
2.41111
2.46604
2.52056
2.57464
2.62824
2.68132
2.73384
2.78577
2.83707
2.88772
2.93766
2.98688
3.03533
3.08299
3.12982
3.17579
3.22088
3.26505
3.30828
3.35054
3.3918
3.43205
3.47126
3.50941
3.5465
3.58251
3.61743
3.65127
3.68402
3.71569
3.7463
3.77587
3.80442
3.832
3.85864
3.88439
3.90933
3.93351
3.95702
3.97995
4.0024
4.02449
4.04634
4.06809
4.08989
4.11191
4.13431
4.1573
4.18106
4.20581
4.23176
4.25913
4.28815
4.31887
4.35156
4.38647
4.42381
4.46378
4.50657
4.55229
4.60105
4.65286
4.70762
4.76514
4.82503
4.88673
4.94944
5.01207
5.07325
5.13124
5.18399
5.22916
5.26418
5.28644
5.29342
5.28287
5.25315
5.20311
5.13293
5.04426
4.9393
4.82057
4.69078
4.55271
4.40898
4.26191
4.11356
3.96572
3.81997
3.67762
3.53966
3.40684
3.27962
3.15827
3.0429
2.93348
2.82988
2.73191
2.63934
2.55189
2.46927
2.39121
2.31741
2.24758
2.18148
2.11883
2.0594
2.00297
1.94931
1.89825
1.8496
1.80319
1.75887
1.7165
1.67595
1.6371
1.59983
1.56406
1.52968
1.49661
1.46477
1.4341
1.40452
1.37597
1.34841
1.32179
1.29606
1.2712
1.24719
1.22404
1.20177
1.18045
1.16023
1.14126
1.12395
1.10895
0.133963
0.256414
0.3241
0.374022
0.416938
0.456949
0.496111
0.535571
0.575969
0.617631
0.66068
0.705118
0.750881
0.79788
0.846021
0.895218
0.945397
0.996496
1.04847
1.10126
1.15486
1.20921
1.26429
1.32008
1.37654
1.43364
1.49134
1.54962
1.60843
1.66773
1.72747
1.78762
1.84812
1.90893
1.96999
2.03125
2.09267
2.15418
2.21574
2.27729
2.33878
2.40017
2.46139
2.52241
2.58318
2.64363
2.70374
2.76346
2.82273
2.88151
2.93976
2.99744
3.05449
3.11089
3.16658
3.22152
3.27566
3.32897
3.38139
3.43289
3.48342
3.53294
3.58139
3.62874
3.67495
3.71997
3.76376
3.80628
3.8475
3.88738
3.9259
3.96302
3.99872
4.03299
4.06582
4.09719
4.12713
4.15563
4.18272
4.20842
4.23277
4.25584
4.27767
4.29834
4.31794
4.33657
4.35435
4.37141
4.38789
4.40395
4.41979
4.43558
4.45156
4.46794
4.48498
4.50293
4.52205
4.5425
4.5646
4.58864
4.61493
4.64377
4.67547
4.71032
4.74858
4.79047
4.83615
4.88568
4.93897
4.99577
5.05557
5.11761
5.18073
5.24336
5.30346
5.35852
5.40564
5.44161
5.46318
5.46725
5.45126
5.41405
5.35565
5.27704
5.18
5.06691
4.9405
4.80365
4.65924
4.50992
4.35809
4.20586
4.05508
3.90726
3.76358
3.6249
3.4918
3.36464
3.24356
3.12859
3.01961
2.91646
2.81889
2.72664
2.63941
2.55692
2.47886
2.40495
2.33492
2.26849
2.20541
2.14546
2.08842
2.03408
1.98227
1.93279
1.88551
1.84026
1.79692
1.75537
1.71548
1.67715
1.64029
1.60481
1.57063
1.53768
1.50589
1.4752
1.44556
1.41692
1.38925
1.36252
1.33672
1.31187
1.288
1.2652
1.24361
1.22334
1.20471
1.18817
0.145215
0.272644
0.344583
0.397844
0.443612
0.486093
0.527371
0.568618
0.61052
0.653466
0.69765
0.743142
0.789939
0.838
0.887267
0.93768
0.989182
1.04173
1.09527
1.14977
1.20521
1.26155
1.31877
1.37684
1.43573
1.49541
1.55585
1.617
1.67884
1.74131
1.80437
1.86799
1.93209
1.99664
2.06158
2.12685
2.1924
2.25817
2.32411
2.39016
2.45626
2.52236
2.58841
2.65434
2.72011
2.78566
2.85094
2.9159
2.98049
3.04465
3.10833
3.17149
3.23406
3.29601
3.35727
3.41779
3.47752
3.5364
3.59438
3.65139
3.70738
3.76228
3.81605
3.8686
3.91989
3.96985
4.01842
4.06554
4.11114
4.15517
4.19757
4.23829
4.27729
4.31451
4.34992
4.38349
4.41519
4.44501
4.47294
4.49899
4.52316
4.54548
4.566
4.58476
4.60183
4.61729
4.63124
4.64379
4.65508
4.66526
4.67449
4.68298
4.69092
4.69857
4.70616
4.71398
4.7223
4.73135
4.74145
4.75296
4.76623
4.78165
4.79965
4.82063
4.84504
4.8733
4.90584
4.94303
4.98516
5.03236
5.0846
5.14158
5.20263
5.26653
5.33153
5.39519
5.45433
5.50532
5.54399
5.56637
5.56926
5.5507
5.50977
5.44667
5.36266
5.25984
5.14095
5.00903
4.86726
4.71864
4.56597
4.41174
4.25806
4.10672
3.95908
3.81616
3.67867
3.54704
3.42152
3.30214
3.18885
3.08149
2.97984
2.88362
2.79256
2.70635
2.62471
2.54733
2.47394
2.40426
2.33804
2.27504
2.21504
2.15784
2.10324
2.05106
2.00114
1.95334
1.90751
1.86353
1.82129
1.78066
1.74157
1.70391
1.66761
1.63259
1.59878
1.56614
1.5346
1.50412
1.47467
1.44623
1.41879
1.39238
1.36704
1.34285
1.31995
1.29842
1.27847
1.26043
0.153431
0.283155
0.357905
0.413467
0.461251
0.505511
0.548325
0.590864
0.633828
0.677638
0.722536
0.768642
0.816003
0.864621
0.914472
0.965524
1.01774
1.0711
1.12555
1.18109
1.23767
1.29529
1.35391
1.41352
1.47409
1.53559
1.59799
1.66125
1.72534
1.79021
1.85583
1.92213
1.98908
2.05662
2.12469
2.19324
2.26221
2.33154
2.40118
2.47107
2.54114
2.61133
2.6816
2.75188
2.82212
2.89225
2.96222
3.03197
3.10145
3.17061
3.23937
3.30769
3.3755
3.44275
3.50938
3.57532
3.6405
3.70486
3.76833
3.83085
3.89233
3.95269
4.01188
4.06979
4.12635
4.18149
4.2351
4.28712
4.33745
4.38602
4.43273
4.47751
4.52029
4.56099
4.59954
4.63588
4.66997
4.70174
4.73118
4.75824
4.78292
4.80521
4.82513
4.8427
4.85797
4.87097
4.8818
4.89055
4.89731
4.90222
4.90543
4.90711
4.90745
4.90667
4.90501
4.90275
4.90012
4.89741
4.89491
4.89299
4.89202
4.89246
4.89477
4.89947
4.90713
4.91836
4.93382
4.95419
4.98017
5.01238
5.05136
5.09745
5.15073
5.21066
5.2761
5.34506
5.4143
5.48012
5.53721
5.58109
5.60746
5.61288
5.59506
5.5531
5.48748
5.3999
5.29299
5.16998
5.03434
4.88951
4.73873
4.58489
4.43047
4.27753
4.12766
3.98209
3.84165
3.7069
3.57814
3.45549
3.33892
3.22831
3.12344
3.02408
2.92993
2.84071
2.75612
2.67587
2.59968
2.52727
2.45838
2.39279
2.33025
2.27057
2.21355
2.15901
2.10679
2.05674
2.00871
1.96258
1.91823
1.87555
1.83445
1.79483
1.75661
1.71972
1.68409
1.64967
1.6164
1.58424
1.55317
1.52317
1.49423
1.46638
1.43967
1.41418
1.39003
1.36729
1.34603
1.32654
0.158777
0.288539
0.364846
0.421785
0.470812
0.516185
0.559957
0.603281
0.646851
0.691102
0.736301
0.782601
0.830086
0.878791
0.928727
0.979885
1.03225
1.08581
1.14056
1.19646
1.25351
1.3117
1.371
1.4314
1.49289
1.55542
1.61899
1.68356
1.74909
1.81555
1.88289
1.95108
2.02005
2.08977
2.16017
2.2312
2.30281
2.37493
2.44752
2.5205
2.59382
2.66742
2.74124
2.81523
2.88931
2.96344
3.03754
3.11157
3.18546
3.25915
3.33258
3.40568
3.4784
3.55065
3.62238
3.69352
3.76398
3.8337
3.90258
3.97056
4.03753
4.10342
4.16812
4.23153
4.29357
4.35412
4.41308
4.47034
4.52579
4.57932
4.63083
4.68021
4.72735
4.77215
4.8145
4.85433
4.89155
4.92607
4.95784
4.98679
5.01288
5.03608
5.05637
5.07375
5.08822
5.09981
5.10858
5.11458
5.11788
5.1186
5.11684
5.11275
5.10648
5.09822
5.08818
5.07659
5.06365
5.0496
5.03473
5.01935
5.00385
4.98865
4.97422
4.96113
4.94999
4.94153
4.93656
4.93605
4.94104
4.95265
4.97205
5.00039
5.03871
5.08749
5.14658
5.21525
5.29018
5.36779
5.44301
5.51019
5.56352
5.59768
5.60853
5.59357
5.55211
5.48517
5.39516
5.2854
5.1597
5.02199
4.87599
4.72508
4.57214
4.41958
4.26929
4.12268
3.98077
3.84424
3.71349
3.58871
3.46991
3.35702
3.24984
3.14816
3.05169
2.96017
2.87329
2.79078
2.71235
2.63773
2.56667
2.49893
2.43429
2.37253
2.31347
2.25692
2.20272
2.15073
2.10079
2.05278
2.00659
1.9621
1.91922
1.87786
1.83794
1.79938
1.76212
1.7261
1.69127
1.6576
1.62506
1.59363
1.56332
1.53415
1.50617
1.47946
1.45412
1.43022
1.4077
1.38684
0.161463
0.289434
0.366245
0.423774
0.473366
0.519244
0.563427
0.607038
0.65076
0.695025
0.740111
0.786192
0.833374
0.881721
0.931265
0.982023
1.034
1.0872
1.14162
1.19725
1.25411
1.31216
1.37142
1.43187
1.49351
1.5563
1.62023
1.68529
1.75144
1.81864
1.88687
1.95607
2.02622
2.09726
2.16914
2.24182
2.31523
2.38933
2.46405
2.53934
2.61514
2.6914
2.76805
2.84503
2.92229
2.99976
3.07739
3.15511
3.23286
3.31057
3.38818
3.46563
3.54284
3.61974
3.69626
3.77232
3.84783
3.92271
3.99688
4.07022
4.14266
4.21406
4.28434
4.35338
4.42105
4.48723
4.5518
4.61462
4.67557
4.73451
4.79131
4.84582
4.89791
4.94745
4.99432
5.03839
5.07955
5.11768
5.15268
5.18448
5.21299
5.23814
5.2599
5.27822
5.29309
5.3045
5.31247
5.31702
5.31822
5.3161
5.31077
5.30232
5.29085
5.27652
5.25947
5.2399
5.21789
5.19364
5.16739
5.1394
5.10997
5.07948
5.04835
5.01708
4.98628
4.95666
4.9291
4.90467
4.88469
4.87071
4.86447
4.86791
4.88322
4.91228
4.95618
5.01532
5.08835
5.17234
5.26248
5.35232
5.43439
5.50111
5.54588
5.56393
5.55282
5.51246
5.44476
5.35305
5.24149
5.1145
4.97641
4.83112
4.68205
4.53197
4.38312
4.23716
4.09532
3.95842
3.82696
3.70123
3.5813
3.46713
3.35857
3.25543
3.15744
3.06435
2.97587
2.89173
2.81165
2.73538
2.66265
2.59325
2.52694
2.46352
2.40281
2.34462
2.28879
2.23517
2.18363
2.13404
2.08628
2.04024
1.99583
1.95296
1.91155
1.87153
1.83283
1.79541
1.7592
1.72418
1.69033
1.65762
1.62607
1.5957
1.56657
1.53873
1.51226
1.48724
1.46355
1.4414
0.161733
0.286494
0.362957
0.420435
0.470024
0.51588
0.559981
0.60342
0.64686
0.690726
0.735297
0.780758
0.827229
0.874792
0.923495
0.973375
1.02445
1.07675
1.13027
1.18503
1.24104
1.2983
1.35682
1.41659
1.47762
1.53989
1.6034
1.66813
1.73407
1.80118
1.86944
1.93882
2.00929
2.08079
2.1533
2.22676
2.30113
2.37635
2.45239
2.52917
2.60666
2.68479
2.76351
2.84275
2.92247
3.00261
3.08309
3.16387
3.24488
3.32605
3.40732
3.48862
3.56987
3.651
3.73193
3.81257
3.89284
3.97265
4.05189
4.13045
4.20824
4.28511
4.36097
4.43566
4.50906
4.58103
4.65141
4.72007
4.78683
4.85155
4.91405
4.97419
5.03178
5.08668
5.13872
5.18775
5.23362
5.27619
5.31533
5.35091
5.38284
5.41101
5.43534
5.45578
5.47226
5.48476
5.49326
5.49775
5.49825
5.49479
5.48741
5.47617
5.46111
5.44234
5.41996
5.39407
5.36462
5.33178
5.29569
5.25654
5.21454
5.16997
5.12315
5.07446
5.0244
4.97358
4.92279
4.87305
4.82572
4.78277
4.74625
4.71875
4.70329
4.70313
4.72125
4.76005
4.8205
4.90157
4.99956
5.10798
5.21797
5.31943
5.40262
5.4596
5.48534
5.478
5.43857
5.37021
5.27737
5.16506
5.03824
4.90149
4.75879
4.61342
4.46798
4.32446
4.18429
4.04847
3.91766
3.79221
3.67228
3.55788
3.44891
3.34519
3.24652
3.15262
3.06326
2.97815
2.89704
2.81969
2.74584
2.67527
2.60777
2.54313
2.48118
2.42173
2.36464
2.30975
2.25693
2.20606
2.15702
2.10971
2.06403
2.0199
1.97724
1.93598
1.89605
1.85742
1.82002
1.78383
1.74883
1.715
1.68236
1.65092
1.62073
1.59186
1.56436
1.53828
1.51351
1.49018
0.159848
0.28037
0.355821
0.412748
0.461884
0.507289
0.550893
0.593757
0.636528
0.679618
0.723304
0.767774
0.813158
0.859545
0.907
0.955566
1.00528
1.05617
1.10826
1.16159
1.21616
1.27199
1.32912
1.38753
1.44725
1.50827
1.57061
1.63425
1.69918
1.7654
1.83289
1.90162
1.97157
2.04271
2.11501
2.18843
2.26293
2.33847
2.415
2.49248
2.57086
2.65009
2.73011
2.81089
2.89235
2.97445
3.05712
3.14032
3.22396
3.308
3.39236
3.47698
3.56177
3.64667
3.73158
3.81642
3.90109
3.9855
4.06954
4.15309
4.23605
4.31827
4.3996
4.4799
4.55904
4.63684
4.71315
4.78779
4.86058
4.93133
4.99987
5.066
5.12954
5.19028
5.24804
5.30263
5.35388
5.40162
5.44567
5.48589
5.52213
5.55427
5.58219
5.60581
5.62503
5.63979
5.65005
5.65577
5.65693
5.65352
5.64555
5.63302
5.61594
5.59434
5.56828
5.53774
5.50254
5.46278
5.41855
5.36995
5.31709
5.26011
5.19921
5.13463
5.0667
4.99587
4.92278
4.84833
4.77377
4.70087
4.63183
4.56956
4.51769
4.48053
4.46282
4.46932
4.50402
4.56901
4.66326
4.78167
4.91494
5.05062
5.17516
5.27643
5.34559
5.37807
5.37337
5.33413
5.26501
5.17163
5.05971
4.9346
4.80095
4.66262
4.52267
4.38342
4.2466
4.11339
3.98461
3.86072
3.74196
3.62842
3.52004
3.41669
3.31818
3.22428
3.13477
3.04939
2.9679
2.89006
2.81565
2.74444
2.67624
2.61084
2.54808
2.48779
2.42982
2.37403
2.32027
2.26845
2.21844
2.17015
2.12348
2.07835
2.03469
1.99243
1.9515
1.91187
1.87348
1.83632
1.80035
1.76556
1.73198
1.69961
1.66849
1.63869
1.61025
1.5832
1.55745
1.53304
0.156093
0.271691
0.345639
0.401654
0.450008
0.49464
0.537423
0.579393
0.621174
0.663171
0.705654
0.748811
0.792776
0.837653
0.883523
0.930409
0.978352
1.0274
1.0776
1.12899
1.1816
1.23547
1.29061
1.34706
1.40484
1.46396
1.52445
1.5863
1.64953
1.71414
1.78012
1.84746
1.91615
1.98617
2.0575
2.13011
2.20398
2.27907
2.35535
2.43278
2.51132
2.59092
2.67154
2.75314
2.83566
2.91905
3.00326
3.08823
3.17391
3.26022
3.34711
3.4345
3.52231
3.61047
3.69889
3.78749
3.87615
3.96479
4.05327
4.14149
4.22931
4.31659
4.40318
4.48893
4.57367
4.65723
4.73941
4.82004
4.89892
4.97582
5.05056
5.1229
5.19263
5.25954
5.3234
5.384
5.44112
5.49456
5.54413
5.58963
5.6309
5.66777
5.70011
5.72777
5.75065
5.76865
5.78169
5.7897
5.79264
5.79044
5.78308
5.77051
5.75271
5.72964
5.70128
5.66746
5.62793
5.58276
5.53196
5.47553
5.41349
5.34588
5.27276
5.19422
5.11043
5.02166
4.92835
4.8312
4.73121
4.62985
4.52912
4.4318
4.3416
4.26326
4.20263
4.16648
4.16193
4.1952
4.26977
4.38425
4.53096
4.69613
4.86226
5.01175
5.13046
5.20971
5.24652
5.24253
5.20246
5.13252
5.03933
4.92909
4.80728
4.67842
4.54608
4.41303
4.28127
4.15225
4.02692
3.9059
3.78953
3.67796
3.5712
3.46917
3.37171
3.27864
3.18974
3.1048
3.02359
2.9459
2.8715
2.8002
2.73181
2.66614
2.60304
2.54233
2.48389
2.42757
2.37325
2.32081
2.27016
2.2212
2.17383
2.12798
2.08359
2.04058
1.99889
1.95849
1.91933
1.88138
1.84463
1.80907
1.7747
1.74155
1.70965
1.67905
1.64978
1.62186
1.59521
1.56986
0.151096
0.261055
0.333187
0.388068
0.435434
0.47908
0.520826
0.561676
0.602238
0.642904
0.683936
0.725519
0.767786
0.810835
0.854744
0.899571
0.94537
0.992195
1.0401
1.08912
1.13932
1.19074
1.24341
1.29738
1.35268
1.40935
1.46742
1.52691
1.58784
1.65022
1.71407
1.77938
1.84617
1.91443
1.98414
2.0553
2.12788
2.20187
2.27724
2.35396
2.432
2.51132
2.5919
2.67368
2.75662
2.84068
2.92581
3.01196
3.09906
3.18707
3.27591
3.36551
3.45581
3.54671
3.63814
3.73
3.82218
3.91458
4.00709
4.09957
4.19188
4.28388
4.37542
4.46632
4.5564
4.64549
4.73337
4.81985
4.9047
4.9877
5.06862
5.14721
5.22323
5.29644
5.36658
5.43342
5.4967
5.5562
5.61167
5.66291
5.70969
5.75184
5.78917
5.82152
5.84874
5.87069
5.88728
5.89839
5.90393
5.90381
5.89795
5.88626
5.86866
5.84508
5.81538
5.77921
5.73636
5.68684
5.63059
5.56756
5.49766
5.42085
5.33708
5.24631
5.14859
5.04404
4.93293
4.81573
4.69322
4.56652
4.43727
4.30785
4.18154
4.0628
3.95755
3.87343
3.81971
3.80662
3.84338
3.93512
4.0792
4.26329
4.46682
4.66585
4.83899
4.97153
5.05662
5.09416
5.08859
5.04672
4.97613
4.88407
4.77692
4.65997
4.53743
4.4125
4.28755
4.16429
4.04387
3.92705
3.81429
3.70583
3.60174
3.50199
3.40648
3.31507
3.22758
3.14381
3.06356
2.98665
2.91287
2.84205
2.774
2.70856
2.64558
2.58491
2.52642
2.46997
2.41546
2.36278
2.31183
2.26252
2.21477
2.1685
2.12365
2.08015
2.03796
1.99703
1.95732
1.91881
1.88148
1.84533
1.81036
1.77658
1.74404
1.71277
1.68279
1.65413
1.62669
1.60054
0.145191
0.249203
0.319206
0.372752
0.418959
0.461455
0.501994
0.541546
0.580701
0.619836
0.659207
0.698994
0.739329
0.780312
0.822024
0.864538
0.907916
0.952223
0.997518
1.04386
1.09131
1.13993
1.18977
1.24089
1.29334
1.34716
1.4024
1.4591
1.51729
1.57701
1.63828
1.70111
1.76554
1.83155
1.89916
1.96837
2.03918
2.11156
2.18551
2.26102
2.33805
2.41658
2.49658
2.57803
2.66087
2.74508
2.83061
2.9174
3.00541
3.09458
3.18485
3.27614
3.36839
3.46152
3.55543
3.65003
3.74522
3.84089
3.93691
4.03316
4.12949
4.22574
4.32177
4.41738
4.51239
4.60661
4.69982
4.7918
4.88232
4.97113
5.05798
5.14261
5.22476
5.30414
5.38049
5.45353
5.52299
5.5886
5.65008
5.7072
5.75971
5.80737
5.84997
5.88732
5.91923
5.94553
5.96606
5.9807
5.98929
5.99171
5.98782
5.97749
5.96057
5.93694
5.90626
5.86811
5.8224
5.76905
5.70793
5.63894
5.56193
5.47677
5.38333
5.28151
5.17125
5.05259
4.92569
4.7909
4.64881
4.5003
4.34673
4.19
4.0328
3.87887
3.73334
3.60329
3.49826
3.43055
3.41436
3.46289
3.58277
3.7681
3.99851
4.24397
4.47387
4.66493
4.80447
4.88947
4.92363
4.91429
4.87006
4.79934
4.70958
4.60693
4.49629
4.38138
4.26497
4.14904
4.03497
3.92368
3.81575
3.71152
3.61114
3.51466
3.42202
3.33311
3.24781
3.16595
3.08737
3.01189
2.93934
2.86957
2.80241
2.73771
2.67534
2.61517
2.55706
2.5009
2.4466
2.39405
2.34315
2.29384
2.24602
2.19964
2.15462
2.11092
2.06849
2.02728
1.98726
1.94842
1.91072
1.87418
1.83879
1.80457
1.77155
1.73976
1.70922
1.67994
1.65184
1.62499
0.138404
0.236539
0.304188
0.356255
0.401202
0.442464
0.481714
0.519881
0.557528
0.595019
0.632604
0.670458
0.708716
0.747482
0.786846
0.826888
0.867684
0.909307
0.951829
0.995324
1.03986
1.08552
1.13235
1.18045
1.22986
1.28065
1.33288
1.38661
1.44188
1.49873
1.55722
1.61736
1.6792
1.74275
1.80803
1.87505
1.94381
2.01433
2.08659
2.16059
2.23631
2.31373
2.39284
2.47361
2.556
2.63998
2.72552
2.81255
2.90105
2.99094
3.08218
3.17469
3.2684
3.36323
3.45909
3.55589
3.65352
3.75187
3.85082
3.95022
4.04994
4.14982
4.24969
4.34937
4.44868
4.54739
4.64529
4.74216
4.83774
4.93177
5.024
5.11414
5.2019
5.287
5.36912
5.44797
5.52324
5.59464
5.66186
5.72462
5.78263
5.83564
5.88338
5.92562
5.96213
5.9927
6.01714
6.03525
6.04685
6.05175
6.04976
6.04068
6.02432
6.00037
5.96837
5.9281
5.8794
5.82214
5.75614
5.68122
5.5972
5.50388
5.40108
5.28866
5.16655
5.03473
4.89335
4.74273
4.58338
4.41614
4.24217
4.06314
3.88127
3.6996
3.52221
3.35483
3.2055
3.08575
3.01139
3.00179
3.07494
3.23772
3.47674
3.75898
4.04359
4.29574
4.49424
4.63154
4.70987
4.73687
4.72225
4.67568
4.60574
4.51956
4.42277
4.31966
4.21341
4.10632
3.99999
3.89551
3.79362
3.69474
3.59911
3.50686
3.41798
3.33243
3.25011