/*--------------------------------*- C++ -*----------------------------------*\
| =========                 |                                                 |
| \\      /  F ield         | OpenFOAM: The Open Source CFD Toolbox           |
|  \\    /   O peration     | Version:  2.2.x                                 |
|   \\  /    A nd           | Web:      www.OpenFOAM.org                      |
|    \\/     M anipulation  |                                                 |
\*---------------------------------------------------------------------------*/
FoamFile
{
    version     2.0;
    format      ascii;
    class       volScalarField;
    location    "300";
    object      nut;
}
// * * * * * * * * * * * * * * * * * * * * * * * * * * * * * * * * * * * * * //

dimensions      [0 2 -1 0 0 0 0];

internalField   nonuniform List<scalar> 
12225
(
3.09428e-05
3.71944e-05
4.09469e-05
4.31448e-05
4.4382e-05
4.50234e-05
4.52954e-05
4.53406e-05
4.52486e-05
4.50762e-05
4.48587e-05
4.46185e-05
4.43697e-05
4.4121e-05
4.38775e-05
4.36424e-05
4.34136e-05
4.32118e-05
0.000116612
6.93663e-05
5.16031e-05
4.24129e-05
3.7152e-05
3.39192e-05
3.18272e-05
3.04285e-05
2.94791e-05
2.88367e-05
2.84131e-05
2.8151e-05
2.80116e-05
2.79679e-05
2.79997e-05
2.80913e-05
2.82287e-05
2.83717e-05
0.000365107
0.000223232
0.000162444
0.000127898
0.000106021
9.12233e-05
8.06793e-05
7.28514e-05
6.68501e-05
6.21306e-05
5.83429e-05
5.52529e-05
5.2699e-05
5.05655e-05
4.87664e-05
4.72315e-05
4.5892e-05
4.47234e-05
0.000644606
0.000479064
0.000378677
0.000313416
0.000268311
0.000235736
0.000211333
0.000192486
0.000177559
0.000165483
0.000155538
0.00014722
0.000140171
0.000134128
0.000128892
0.00012431
0.000120263
0.000116745
0.000789267
0.000696788
0.000611893
0.000542011
0.00048602
0.000441267
0.000405208
0.000375807
0.000351533
0.00033125
0.00031411
0.000299478
0.000286871
0.000275917
0.000266328
0.000257878
0.000250401
0.000243871
0.000836145
0.000802037
0.000758887
0.000713858
0.000670918
0.000631813
0.000597006
0.000566343
0.000539425
0.000515793
0.000495001
0.000476651
0.000460395
0.00044594
0.00043304
0.000421489
0.000411131
0.000401955
0.000848365
0.000838513
0.000822826
0.00080287
0.000780456
0.000757113
0.000733922
0.00071156
0.000690406
0.000670636
0.000652303
0.000635384
0.000619813
0.000605504
0.000592365
0.000580305
0.000569251
0.000559253
0.000850836
0.000847526
0.000841607
0.000833087
0.000822379
0.000810074
0.000796766
0.000782962
0.000769058
0.000755344
0.000742018
0.000729211
0.000716999
0.000705422
0.000694496
0.000684219
0.000674591
0.00066573
0.000851475
0.000850224
0.000847999
0.000844572
0.000839903
0.000834091
0.000827326
0.000819831
0.000811827
0.000803511
0.000795053
0.000786586
0.000778216
0.000770024
0.000762065
0.000754384
0.000747017
0.000740097
0.000851641
0.00085103
0.000850149
0.000848864
0.000847081
0.000844755
0.000841893
0.000838536
0.000834749
0.000830608
0.000826193
0.000821579
0.000816836
0.000812025
0.000807198
0.000802399
0.000797671
0.000793123
0.000851672
0.000851219
0.000850723
0.000850136
0.000849413
0.000848514
0.000847416
0.000846104
0.000844581
0.000842857
0.000840949
0.000838882
0.000836679
0.000834367
0.000831972
0.000829518
0.000827033
0.000824582
0.000851674
0.000851249
0.000850836
0.000850422
0.000849994
0.000849535
0.000849034
0.000848477
0.000847857
0.000847169
0.000846411
0.000845585
0.000844693
0.000843742
0.000842737
0.000841686
0.0008406
0.000839511
0.000851671
0.000851248
0.000850846
0.000850463
0.000850094
0.000849736
0.000849382
0.000849029
0.000848673
0.000848309
0.000847935
0.000847549
0.000847148
0.000846733
0.000846304
0.00084586
0.000845406
0.000844958
0.000851669
0.000851243
0.000850841
0.00085046
0.000850098
0.000849754
0.000849426
0.000849112
0.000848809
0.000848518
0.000848235
0.000847959
0.000847689
0.000847425
0.000847164
0.000846907
0.000846656
0.00084642
0.000851666
0.000851239
0.000850835
0.000850452
0.000850089
0.000849745
0.000849419
0.000849108
0.000848812
0.000848531
0.000848262
0.000848004
0.000847758
0.000847522
0.000847295
0.000847077
0.00084687
0.000846684
0.000851665
0.000851236
0.000850831
0.000850446
0.000850082
0.000849736
0.000849408
0.000849097
0.0008488
0.000848518
0.000848249
0.000847993
0.000847748
0.000847515
0.000847292
0.000847079
0.000846877
0.000846698
0.000851664
0.000851235
0.000850828
0.000850443
0.000850077
0.00084973
0.000849401
0.000849088
0.000848791
0.000848507
0.000848237
0.00084798
0.000847735
0.0008475
0.000847277
0.000847063
0.000846862
0.000846683
0.000851664
0.000851234
0.000850827
0.000850441
0.000850075
0.000849728
0.000849398
0.000849085
0.000848786
0.000848502
0.000848232
0.000847974
0.000847728
0.000847493
0.000847269
0.000847055
0.000846853
0.000846673
0.000851664
0.000851234
0.000850828
0.000850442
0.000850076
0.000849729
0.000849399
0.000849086
0.000848787
0.000848503
0.000848232
0.000847973
0.000847727
0.000847491
0.000847266
0.000847051
0.000846847
0.000846667
0.000851665
0.000851236
0.000850829
0.000850444
0.000850079
0.000849732
0.000849402
0.000849087
0.000848787
0.000848501
0.000848226
0.000847963
0.000847709
0.000847466
0.000847231
0.000847005
0.000846788
0.000846592
0.000851666
0.000851238
0.000850832
0.000850446
0.000850078
0.000849726
0.000849386
0.000849056
0.000848734
0.000848418
0.000848105
0.000847795
0.000847485
0.000847174
0.000846863
0.00084655
0.000846239
0.000845939
0.000851667
0.000851237
0.000850823
0.000850418
0.000850011
0.000849593
0.000849156
0.000848692
0.000848194
0.000847659
0.000847083
0.000846466
0.00084581
0.000845114
0.000844384
0.000843621
0.000842833
0.000842038
0.000851661
0.000851195
0.000850681
0.000850076
0.000849338
0.000848434
0.000847345
0.00084606
0.000844581
0.000842917
0.000841086
0.000839105
0.000836996
0.000834783
0.000832485
0.000830126
0.000827726
0.00082533
0.00085157
0.000850737
0.000849407
0.000847419
0.000844697
0.000841238
0.000837097
0.000832364
0.000827148
0.000821558
0.000815701
0.000809671
0.00080355
0.000797407
0.000791298
0.00078527
0.000779361
0.000773644
0.000850707
0.000847138
0.000840909
0.000832099
0.000821135
0.000808587
0.000795019
0.00078092
0.000766672
0.00075256
0.000738786
0.000725486
0.000712743
0.000700604
0.000689091
0.000678205
0.000667939
0.000658332
0.000844113
0.000825227
0.00079854
0.000767751
0.000735684
0.000704185
0.000674295
0.0006465
0.000620957
0.000597642
0.000576436
0.000557177
0.000539692
0.000523806
0.000509358
0.000496199
0.000484198
0.000473282
0.000803427
0.000727166
0.000652738
0.000587798
0.000532991
0.000487224
0.000448987
0.000416861
0.000389677
0.0003665
0.000346594
0.000329376
0.000314385
0.000301253
0.000289684
0.000279442
0.000270334
0.000262227
0.000625874
0.000466138
0.000370258
0.00030636
0.000260999
0.000227525
0.000202035
0.000182116
0.000166219
0.000153308
0.000142666
0.000133781
0.00012628
0.000119886
0.00011439
0.000109631
0.00010549
0.000101888
0.000254187
0.000158467
0.000118173
9.48532e-05
7.98583e-05
6.96559e-05
6.24108e-05
5.70942e-05
5.30929e-05
5.00209e-05
4.76241e-05
4.57297e-05
4.42165e-05
4.29977e-05
4.20097e-05
4.12055e-05
4.05495e-05
4.00214e-05
3.69327e-05
4.20256e-05
4.57633e-05
4.86731e-05
5.10795e-05
5.30438e-05
5.46257e-05
5.58826e-05
5.68668e-05
5.76253e-05
5.81982e-05
5.862e-05
5.89192e-05
5.91199e-05
5.92417e-05
5.93008e-05
5.93106e-05
5.92808e-05
8.16597e-06
2.25189e-05
2.51207e-05
2.67905e-05
2.86064e-05
3.03627e-05
3.22207e-05
3.45578e-05
3.69718e-05
3.94412e-05
4.19085e-05
4.43387e-05
4.67228e-05
4.90689e-05
5.1359e-05
5.35876e-05
5.57557e-05
5.7865e-05
5.99177e-05
6.19159e-05
6.38617e-05
6.57571e-05
6.76038e-05
6.94037e-05
7.11582e-05
7.2869e-05
7.45374e-05
7.61645e-05
7.77516e-05
7.92997e-05
8.08098e-05
8.22828e-05
8.37196e-05
8.51208e-05
8.64874e-05
8.78201e-05
8.91195e-05
9.03864e-05
9.16212e-05
9.28248e-05
9.39975e-05
9.514e-05
9.62527e-05
9.73363e-05
9.83913e-05
9.94182e-05
0.000100418
0.00010139
0.000102336
0.000103257
0.000104152
0.000105022
0.000105868
0.000106691
0.000107491
0.000108269
0.000109026
0.000109762
0.000110479
0.000111177
0.000111857
0.000112522
0.000113171
0.000113806
0.000114428
0.00011504
0.000115641
0.000116235
0.000116823
0.000117405
0.000117986
0.000118566
0.000119146
0.000119731
0.00012032
0.000120917
0.000121523
0.00012214
0.00012277
0.000123414
0.000124075
0.000124753
0.00012545
0.000126167
0.000126905
0.000127665
0.000128447
0.000129251
0.000130077
0.000130926
0.000131797
0.00013269
0.000133604
0.000134539
0.000135494
0.000136472
0.000137472
0.000138497
0.000139598
0.000140715
0.000141831
0.000142942
0.000144043
0.000145125
0.000146182
0.000147204
0.000148182
0.000149104
0.000149958
0.000150731
0.000151406
0.000151967
0.000152396
0.000152676
0.000152787
0.000152711
0.000152428
0.000151923
0.000151182
0.000150194
0.000148954
0.00014746
0.000145716
0.00014373
0.000141524
0.000139107
0.000136484
0.000133713
0.000130878
0.000127827
0.000125224
0.000122906
0.000120621
0.000118356
0.000116117
0.000113915
0.000111764
0.00010967
0.000107638
0.000105671
0.000103772
0.000101943
0.000100186
9.8499e-05
9.68801e-05
9.5327e-05
9.38377e-05
9.24096e-05
9.104e-05
8.9726e-05
8.84648e-05
8.72541e-05
8.60916e-05
8.49743e-05
8.38996e-05
8.28654e-05
8.18696e-05
8.091e-05
7.99844e-05
7.9091e-05
7.82279e-05
7.73938e-05
7.65869e-05
7.58053e-05
7.50478e-05
7.43133e-05
7.36e-05
7.29062e-05
7.22308e-05
7.15721e-05
7.09277e-05
7.02954e-05
6.9672e-05
6.90535e-05
6.8433e-05
6.7801e-05
6.71654e-05
6.65052e-05
6.57808e-05
6.48189e-05
1.20503e-05
7.17862e-05
0.000132222
0.000171117
0.000191309
0.000202733
0.000211067
0.000219153
0.000228533
0.000239325
0.000251262
0.000264063
0.000277501
0.000291413
0.0003057
0.000320284
0.000335102
0.000350102
0.00036524
0.000380474
0.000395771
0.000411095
0.000426419
0.000441712
0.00045695
0.000472107
0.000487161
0.000502091
0.000516875
0.000531496
0.000545936
0.000560179
0.000574208
0.000588011
0.000601574
0.000614886
0.000627935
0.000640711
0.000653206
0.000665412
0.000677321
0.000688925
0.00070022
0.0007112
0.000721859
0.000732194
0.0007422
0.000751875
0.000761214
0.000770217
0.000778879
0.000787201
0.000795179
0.000802814
0.000810106
0.000817053
0.000823657
0.000829921
0.000835847
0.000841438
0.000846701
0.00085164
0.000856265
0.000860584
0.000864609
0.000868352
0.000871827
0.000875054
0.00087805
0.00088084
0.000883447
0.000885901
0.000888232
0.000890473
0.000892662
0.000894838
0.000897042
0.000899318
0.000901714
0.000904278
0.000907059
0.000910109
0.00091348
0.000917224
0.000921394
0.000926042
0.000931217
0.000936968
0.00094334
0.000950373
0.000958104
0.000966561
0.000975765
0.000985728
0.000996446
0.0010079
0.00102005
0.00103286
0.0010452
0.00105814
0.00107191
0.0010865
0.0011019
0.00111808
0.00113498
0.00115251
0.00117059
0.00118908
0.00120783
0.00122663
0.00124528
0.0012635
0.00128099
0.00129743
0.00131246
0.00132572
0.00133685
0.00134549
0.00135134
0.00135415
0.00135374
0.00135002
0.00134299
0.00133274
0.00131947
0.00130341
0.00128485
0.0012641
0.00124089
0.00121482
0.00118495
0.00115387
0.00112262
0.0010917
0.00106142
0.00103196
0.00100347
0.000976028
0.00094968
0.000924446
0.000900321
0.000877289
0.000855322
0.000834383
0.000814429
0.00079541
0.000777276
0.000759976
0.000743458
0.000727673
0.000712574
0.000698114
0.000684254
0.000670953
0.000658173
0.000645878
0.000634037
0.00062262
0.000611596
0.000600941
0.000590629
0.000580638
0.000570946
0.000561534
0.000552383
0.000543473
0.000534789
0.000526314
0.00051803
0.000509921
0.000501969
0.000494154
0.00048645
0.000478828
0.000471242
0.000463601
0.000455154
0.000445353
0.00043244
0.000410837
1.48774e-05
0.000114064
0.000211053
0.000276629
0.000319698
0.000349309
0.000372217
0.000392804
0.00041353
0.000435435
0.000458781
0.000483493
0.000509387
0.000536273
0.000563983
0.000592375
0.000621328
0.000650737
0.000680509
0.000710563
0.000740824
0.000771223
0.000801699
0.000832194
0.000862653
0.000893026
0.000923267
0.000953332
0.00098318
0.00101277
0.00104207
0.00107104
0.00109966
0.00112789
0.0011557
0.00118308
0.00120999
0.00123641
0.00126233
0.00128772
0.00131256
0.00133685
0.00136056
0.00138368
0.0014062
0.00142811
0.00144939
0.00147003
0.00149003
0.00150937
0.00152806
0.00154607
0.00156341
0.00158007
0.00159605
0.00161134
0.00162594
0.00163985
0.00165308
0.00166563
0.0016775
0.0016887
0.00169924
0.00170915
0.00171842
0.00172709
0.00173518
0.00174272
0.00174975
0.00175629
0.00176239
0.00176811
0.00177348
0.00177858
0.00178346
0.00178819
0.00179284
0.00179749
0.00180222
0.00180711
0.00181225
0.00181772
0.00182363
0.00183004
0.00183707
0.0018448
0.00185331
0.00186269
0.00187303
0.00188439
0.00189686
0.00191048
0.0019253
0.00194138
0.00195872
0.00197734
0.0019972
0.00201803
0.00203957
0.00206255
0.00208716
0.00211342
0.00214133
0.00217084
0.00220187
0.00223431
0.00226798
0.00230267
0.00233809
0.00237388
0.00240961
0.00244477
0.00247875
0.00251088
0.00254041
0.00256657
0.00258855
0.00260559
0.00261699
0.00262216
0.00262068
0.00261234
0.00259711
0.00257521
0.00254709
0.00251338
0.00247482
0.00243235
0.00238582
0.00233541
0.00228124
0.00222524
0.00216878
0.00211275
0.00205771
0.00200408
0.00195213
0.00190203
0.00185389
0.00180778
0.00176367
0.00172156
0.00168138
0.00164307
0.00160655
0.00157172
0.00153848
0.00150676
0.00147644
0.00144745
0.00141968
0.00139307
0.00136753
0.00134298
0.00131936
0.00129661
0.00127466
0.00125346
0.00123296
0.00121311
0.00119386
0.00117518
0.00115703
0.00113937
0.00112217
0.0011054
0.00108902
0.001073
0.00105733
0.00104195
0.00102685
0.00101197
0.000997276
0.000982699
0.000968148
0.000953432
0.000937616
0.00091972
0.00089717
0.000864583
1.69974e-05
0.000144087
0.000270079
0.000361137
0.00042554
0.000472888
0.000510616
0.000543858
0.000575797
0.000608155
0.000641703
0.000676681
0.000713061
0.000750711
0.000789465
0.000829159
0.00086964
0.000910768
0.000952421
0.000994486
0.00103686
0.00107946
0.00112218
0.00116497
0.00120773
0.00125041
0.00129295
0.00133528
0.00137734
0.0014191
0.00146049
0.00150148
0.00154201
0.00158206
0.00162158
0.00166053
0.00169889
0.00173662
0.0017737
0.00181008
0.00184576
0.0018807
0.00191488
0.00194828
0.00198088
0.00201266
0.00204361
0.00207371
0.00210293
0.00213128
0.00215873
0.00218528
0.0022109
0.0022356
0.00225937
0.0022822
0.00230408
0.00232501
0.00234499
0.00236403
0.00238212
0.00239928
0.00241551
0.00243083
0.00244527
0.00245883
0.00247155
0.00248347
0.00249461
0.00250503
0.00251476
0.00252387
0.00253242
0.00254047
0.00254809
0.00255536
0.00256237
0.0025692
0.00257595
0.00258272
0.0025896
0.0025967
0.00260412
0.00261198
0.00262038
0.00262944
0.00263925
0.00264993
0.00266158
0.0026743
0.00268818
0.00270332
0.0027198
0.00273769
0.00275706
0.00277798
0.00280051
0.00282416
0.00284945
0.00287672
0.0029061
0.00293768
0.00297146
0.00300745
0.00304558
0.00308575
0.00312782
0.00317154
0.00321661
0.0032626
0.00330901
0.00335518
0.00340035
0.00344362
0.00348397
0.00352031
0.00355147
0.00357631
0.00359375
0.00360285
0.00360289
0.00359345
0.00357442
0.00354605
0.00350893
0.00346397
0.00341233
0.00335489
0.00329225
0.00322519
0.00315461
0.00308205
0.00300885
0.00293603
0.00286435
0.00279436
0.00272643
0.00266083
0.00259772
0.00253716
0.00247918
0.00242376
0.00237081
0.00232027
0.00227202
0.00222595
0.00218194
0.00213987
0.00209961
0.00206106
0.00202409
0.00198861
0.00195451
0.00192169
0.00189007
0.00185957
0.00183011
0.00180161
0.00177402
0.00174727
0.0017213
0.00169608
0.00167153
0.00164763
0.00162433
0.00160159
0.00157938
0.00155764
0.00153635
0.00151546
0.00149494
0.00147474
0.00145479
0.00143504
0.00141536
0.00139555
0.00137478
0.00135203
0.00132509
0.00129093
1.8856e-05
0.000163915
0.000315735
0.000430104
0.00051432
0.000578355
0.000630149
0.000675372
0.000717758
0.000759556
0.000801982
0.00084559
0.00089056
0.000936871
0.00098441
0.00103303
0.00108257
0.00113289
0.00118385
0.00123531
0.00128715
0.00133928
0.0013916
0.001444
0.00149641
0.00154875
0.00160095
0.00165294
0.00170465
0.00175602
0.001807
0.00185754
0.00190758
0.00195707
0.00200597
0.00205424
0.00210184
0.00214872
0.00219486
0.00224021
0.00228475
0.00232844
0.00237126
0.00241317
0.00245416
0.0024942
0.00253326
0.00257133
0.00260837
0.00264439
0.00267934
0.00271323
0.00274603
0.00277773
0.00280832
0.00283779
0.00286612
0.00289332
0.00291937
0.00294427
0.00296803
0.00299065
0.00301214
0.0030325
0.00305175
0.00306991
0.003087
0.00310306
0.00311811
0.0031322
0.00314537
0.00315767
0.00316916
0.00317991
0.00318998
0.00319944
0.00320839
0.0032169
0.00322508
0.003233
0.00324079
0.00324853
0.00325634
0.00326433
0.00327262
0.0032813
0.00329051
0.00330036
0.00331095
0.00332242
0.00333486
0.00334839
0.00336311
0.00337914
0.00339657
0.00341549
0.00343601
0.00345794
0.00348178
0.0035078
0.00353618
0.00356704
0.00360047
0.00363653
0.00367527
0.00371665
0.00376061
0.003807
0.00385558
0.00390601
0.00395779
0.00401031
0.00406274
0.0041141
0.0041632
0.00420872
0.00424917
0.00428305
0.00430886
0.00432521
0.00433102
0.00432548
0.00430825
0.00427951
0.00423981
0.00419026
0.00413205
0.0040664
0.00399448
0.00391751
0.00383681
0.00375388
0.00367006
0.00358648
0.003504
0.0034233
0.00334482
0.00326891
0.00319575
0.00312545
0.00305806
0.00299353
0.00293181
0.0028728
0.00281639
0.00276244
0.00271083
0.00266141
0.00261406
0.00256863
0.00252501
0.00248308
0.00244271
0.00240381
0.00236628
0.00233002
0.00229494
0.00226097
0.00222804
0.00219608
0.00216502
0.00213481
0.0021054
0.00207673
0.00204876
0.00202144
0.00199474
0.00196861
0.00194302
0.00191791
0.00189326
0.00186901
0.00184511
0.00182149
0.00179806
0.00177464
0.00175061
0.00172499
0.00169628
0.00166324
2.03817e-05
0.000177279
0.000350156
0.000485016
0.000587221
0.000666668
0.000731572
0.000787967
0.000839993
0.00089031
0.000940499
0.000991417
0.00104346
0.00109674
0.00115125
0.00120687
0.00126349
0.00132095
0.00137911
0.00143785
0.00149705
0.00155657
0.00161633
0.00167622
0.00173616
0.00179605
0.00185582
0.00191539
0.00197471
0.00203369
0.00209227
0.00215041
0.00220804
0.0022651
0.00232156
0.00237735
0.00243244
0.00248678
0.00254033
0.00259304
0.00264489
0.00269583
0.00274584
0.00279487
0.0028429
0.0028899
0.00293584
0.00298069
0.00302443
0.00306704
0.00310849
0.00314876
0.00318782
0.00322567
0.00326228
0.00329764
0.00333174
0.00336455
0.00339607
0.00342629
0.00345521
0.00348282
0.00350912
0.00353411
0.00355781
0.00358022
0.00360135
0.00362123
0.00363989
0.00365734
0.00367363
0.00368879
0.00370288
0.00371594
0.00372804
0.00373923
0.00374959
0.00375919
0.00376811
0.00377644
0.00378427
0.00379169
0.0037988
0.0038057
0.0038125
0.00381931
0.00382623
0.00383339
0.00384089
0.00384886
0.00385741
0.00386667
0.00387676
0.00388781
0.00389993
0.00391324
0.00392786
0.0039439
0.0039618
0.00398184
0.00400424
0.00402923
0.00405698
0.00408768
0.00412149
0.00415854
0.00419892
0.00424265
0.00428969
0.00433985
0.00439282
0.00444811
0.00450501
0.00456255
0.00461952
0.0046744
0.00472547
0.0047708
0.0048084
0.00483635
0.00485299
0.00485697
0.00484751
0.00482445
0.00478839
0.00474034
0.00468163
0.00461372
0.00453819
0.00445666
0.00437073
0.00428203
0.00419201
0.00410192
0.00401275
0.00392526
0.00384
0.00375736
0.00367759
0.00360081
0.0035271
0.00345641
0.00338871
0.00332387
0.0032618
0.00320235
0.00314538
0.00309074
0.00303831
0.00298793
0.00293947
0.00289281
0.00284783
0.00280441
0.00276245
0.00272186
0.00268254
0.00264441
0.00260741
0.00257144
0.00253646
0.0025024
0.0024692
0.00243682
0.0024052
0.00237431
0.0023441
0.00231452
0.00228556
0.00225715
0.00222927
0.00220188
0.00217494
0.00214838
0.00212216
0.00209612
0.0020699
0.0020425
0.00201314
0.00198156
2.15745e-05
0.00018592
0.000375044
0.000527108
0.000645075
0.000738364
0.000815214
0.000881847
0.000942673
0.00100065
0.00105766
0.00111481
0.00117271
0.00123163
0.00129166
0.00135275
0.00141484
0.00147779
0.00154149
0.00160581
0.00167062
0.00173582
0.0018013
0.00186696
0.0019327
0.00199844
0.0020641
0.0021296
0.00219486
0.00225983
0.00232443
0.0023886
0.00245228
0.00251541
0.00257794
0.00263982
0.002701
0.00276143
0.00282105
0.00287984
0.00293774
0.00299472
0.00305074
0.00310576
0.00315974
0.00321265
0.00326446
0.00331514
0.00336465
0.00341297
0.00346007
0.00350592
0.0035505
0.00359378
0.00363574
0.00367636
0.00371561
0.00375348
0.00378995
0.00382499
0.00385861
0.00389077
0.00392148
0.00395073
0.00397851
0.00400482
0.00402966
0.00405304
0.00407497
0.00409547
0.00411455
0.00413224
0.00414856
0.00416356
0.00417727
0.00418974
0.00420102
0.00421116
0.00422023
0.00422829
0.00423543
0.0042417
0.00424719
0.00425199
0.00425619
0.00425988
0.00426316
0.00426613
0.0042689
0.00427157
0.00427427
0.00427711
0.00428023
0.00428375
0.00428782
0.00429257
0.00429814
0.00430485
0.0043131
0.00432322
0.00433553
0.00435032
0.0043679
0.00438861
0.00441276
0.0044407
0.00447272
0.00450913
0.00455012
0.00459583
0.00464623
0.00470112
0.00476005
0.00482223
0.00488652
0.00495137
0.00501481
0.00507453
0.00512796
0.0051724
0.00520557
0.00522497
0.00522943
0.00521845
0.00519226
0.00515173
0.0050982
0.00503337
0.00495913
0.00487745
0.00479026
0.00469941
0.00460655
0.0045131
0.0044202
0.00432873
0.00423935
0.00415252
0.00406853
0.00398757
0.0039097
0.00383492
0.00376318
0.00369438
0.00362841
0.00356513
0.0035044
0.00344606
0.00338998
0.00333601
0.00328402
0.00323388
0.00318546
0.00313866
0.00309337
0.00304948
0.00300692
0.00296559
0.00292542
0.00288634
0.00284828
0.00281119
0.00277501
0.00273969
0.00270518
0.00267144
0.00263843
0.00260611
0.00257444
0.00254341
0.00251296
0.00248308
0.00245373
0.00242489
0.00239651
0.00236851
0.00234065
0.00231215
0.00228256
0.00225211
2.24688e-05
0.000190835
0.000391711
0.000557577
0.000688869
0.000794224
0.000881678
0.00095749
0.00102621
0.00109101
0.00115397
0.00121644
0.00127919
0.00134265
0.00140701
0.00147233
0.00153858
0.00160567
0.00167352
0.001742
0.00181102
0.00188046
0.00195022
0.00202021
0.00209033
0.0021605
0.00223063
0.00230066
0.0023705
0.00244009
0.00250936
0.00257824
0.00264668
0.0027146
0.00278197
0.00284871
0.00291478
0.00298013
0.0030447
0.00310846
0.00317134
0.00323331
0.00329433
0.00335436
0.00341335
0.00347126
0.00352807
0.00358373
0.00363821
0.00369147
0.00374348
0.00379422
0.00384364
0.00389172
0.00393843
0.00398373
0.00402761
0.00407002
0.00411096
0.00415038
0.00418827
0.00422459
0.00425934
0.00429249
0.00432402
0.00435392
0.00438217
0.00440876
0.00443369
0.00445695
0.00447855
0.00449848
0.00451675
0.00453339
0.0045484
0.0045618
0.00457364
0.00458393
0.00459272
0.00460004
0.00460595
0.00461049
0.00461373
0.00461572
0.00461653
0.00461623
0.0046149
0.00461261
0.00460947
0.00460555
0.00460097
0.00459583
0.00459026
0.00458438
0.00457835
0.0045723
0.00456642
0.00456111
0.00455683
0.00455393
0.00455281
0.00455387
0.00455754
0.00456431
0.0045747
0.00458926
0.00460857
0.00463323
0.00466383
0.00470088
0.0047448
0.00479583
0.00485395
0.00491877
0.00498942
0.00506446
0.00514178
0.00521875
0.00529212
0.00535821
0.00541331
0.00545455
0.00547976
0.00548764
0.00547786
0.00545096
0.00540824
0.00535155
0.00528309
0.0052052
0.00512018
0.00503021
0.00493724
0.0048429
0.00474854
0.0046552
0.00456367
0.00447449
0.00438803
0.00430452
0.00422406
0.00414667
0.0040723
0.00400088
0.00393228
0.00386638
0.00380303
0.00374208
0.0036834
0.00362684
0.00357227
0.00351955
0.00346858
0.00341922
0.00337139
0.00332498
0.00327991
0.00323609
0.00319344
0.00315191
0.00311142
0.00307191
0.00303334
0.00299566
0.00295881
0.00292277
0.00288749
0.00285293
0.00281908
0.0027859
0.00275338
0.00272148
0.0026902
0.00265952
0.00262943
0.0025999
0.00257077
0.00254148
0.00251174
0.00248196
2.31036e-05
0.000192708
0.000401268
0.000577605
0.000719722
0.000835261
0.000931876
0.00101572
0.00109137
0.00116212
0.00123023
0.00129717
0.00136389
0.00143095
0.00149866
0.00156714
0.00163645
0.00170654
0.00177735
0.0018488
0.00192079
0.00199324
0.00206605
0.00213913
0.00221238
0.00228575
0.00235913
0.00243246
0.00250566
0.00257867
0.00265142
0.00272384
0.00279587
0.00286745
0.00293852
0.00300903
0.00307891
0.00314813
0.00321661
0.00328432
0.00335121
0.00341722
0.00348231
0.00354644
0.00360956
0.00367164
0.00373262
0.00379248
0.00385117
0.00390865
0.00396488
0.00401984
0.00407347
0.00412575
0.00417663
0.00422608
0.00427407
0.00432056
0.00436551
0.00440889
0.00445066
0.00449079
0.00452924
0.00456598
0.00460097
0.00463419
0.0046656
0.00469517
0.00472289
0.00474872
0.00477264
0.00479464
0.00481469
0.0048328
0.00484894
0.00486311
0.00487532
0.00488557
0.00489387
0.00490023
0.00490466
0.0049072
0.00490787
0.00490669
0.00490372
0.00489898
0.00489253
0.00488443
0.00487473
0.0048635
0.00485082
0.00483679
0.0048215
0.00480507
0.00478764
0.00476938
0.00475043
0.00473132
0.00471248
0.00469434
0.00467734
0.00466197
0.00464878
0.0046384
0.00463152
0.00462893
0.00463148
0.00464013
0.00465588
0.00467973
0.00471267
0.00475556
0.00480903
0.00487333
0.00494812
0.00503243
0.00512407
0.00522045
0.00531676
0.00540874
0.00549181
0.00556173
0.00561496
0.00564902
0.00566266
0.00565587
0.00562978
0.00558635
0.00552808
0.00545774
0.00537808
0.00529173
0.00520099
0.00510784
0.00501387
0.00492035
0.0048282
0.0047381
0.0046505
0.00456569
0.0044838
0.0044049
0.00432895
0.00425589
0.00418561
0.00411799
0.00405288
0.00399015
0.00392965
0.00387125
0.00381481
0.00376021
0.00370733
0.00365605
0.00360629
0.00355794
0.00351093
0.00346516
0.00342056
0.00337708
0.00333464
0.0032932
0.0032527
0.00321309
0.00317435
0.00313642
0.00309927
0.00306288
0.00302723
0.00299228
0.00295803
0.00292447
0.0028916
0.00285941
0.00282793
0.00279714
0.00276697
0.00273705
0.00270709
0.00267759
2.35113e-05
0.000192089
0.000404722
0.000588368
0.000738838
0.000862656
0.00096694
0.00105761
0.00113921
0.00121505
0.00128747
0.0013581
0.00142799
0.00149782
0.00156799
0.00163872
0.00171012
0.0017822
0.00185494
0.00192829
0.00200218
0.00207654
0.00215128
0.00222632
0.00230159
0.002377
0.0024525
0.002528
0.00260344
0.00267875
0.00275386
0.00282871
0.00290325
0.0029774
0.00305112
0.00312434
0.003197
0.00326906
0.00334046
0.00341115
0.00348108
0.00355019
0.00361845
0.00368579
0.00375219
0.00381759
0.00388194
0.00394521
0.00400736
0.00406833
0.00412809
0.0041866
0.00424381
0.00429968
0.00435417
0.00440724
0.00445884
0.00450893
0.00455746
0.00460439
0.00464967
0.00469326
0.0047351
0.00477515
0.00481336
0.00484969
0.00488408
0.00491648
0.00494685
0.00497515
0.00500132
0.00502533
0.00504713
0.00506669
0.00508396
0.00509892
0.00511154
0.00512178
0.00512963
0.00513507
0.00513809
0.00513867
0.00513681
0.00513251
0.00512577
0.00511661
0.00510503
0.00509106
0.00507473
0.00505607
0.00503514
0.00501199
0.0049867
0.00495936
0.00493009
0.00489903
0.00486636
0.0048326
0.0047982
0.00476362
0.00472933
0.00469587
0.00466388
0.00463406
0.00460727
0.00458447
0.00456676
0.00455544
0.00455191
0.00455773
0.00457453
0.00460393
0.0046475
0.00470635
0.00478107
0.0048718
0.00497596
0.00509078
0.00521175
0.00533353
0.00545017
0.00555564
0.00564454
0.00571265
0.00575735
0.00577775
0.00577458
0.00574982
0.00570631
0.00564732
0.00557618
0.00549605
0.00540975
0.00531965
0.0052277
0.00513542
0.00504394
0.00495408
0.00486641
0.00478129
0.00469891
0.00461937
0.00454267
0.00446875
0.00439753
0.00432889
0.0042627
0.00419882
0.00413712
0.00407746
0.00401972
0.00396377
0.0039095
0.00385682
0.0038056
0.00375578
0.00370726
0.00365998
0.00361385
0.00356882
0.00352483
0.00348183
0.00343976
0.0033986
0.00335829
0.00331881
0.00328013
0.00324221
0.00320506
0.00316864
0.00313295
0.003098
0.00306379
0.00303034
0.00299768
0.00296583
0.00293475
0.00290427
0.00287397
0.00284444
2.3719e-05
0.000189452
0.000403016
0.00059104
0.00074748
0.000877695
0.000988156
0.00108445
0.00117098
0.00125103
0.00132698
0.00140053
0.00147283
0.00154465
0.00161648
0.00168862
0.00176123
0.00183439
0.00190811
0.00198238
0.00205716
0.00213239
0.00220802
0.00228396
0.00236016
0.00243655
0.00251307
0.00258965
0.00266623
0.00274273
0.00281912
0.00289531
0.00297127
0.00304691
0.0031222
0.00319707
0.00327147
0.00334535
0.00341864
0.00349131
0.00356329
0.00363454
0.00370501
0.00377465
0.00384342
0.00391127
0.00397815
0.00404401
0.00410882
0.00417252
0.00423508
0.00429645
0.00435657
0.00441541
0.00447291
0.00452903
0.00458372
0.00463693
0.0046886
0.00473868
0.00478711
0.00483383
0.00487878
0.0049219
0.00496313
0.0050024
0.00503965
0.0050748
0.00510779
0.00513855
0.00516701
0.0051931
0.00521676
0.00523791
0.00525649
0.00527244
0.0052857
0.00529621
0.00530392
0.00530876
0.00531071
0.0053097
0.00530571
0.00529869
0.00528862
0.00527547
0.00525922
0.00523986
0.00521738
0.00519179
0.00516309
0.0051313
0.00509648
0.00505866
0.00501795
0.00497445
0.00492834
0.00488015
0.00483032
0.00477928
0.00472751
0.00467557
0.00462411
0.00457389
0.00452582
0.00448097
0.0044406
0.00440622
0.0043796
0.00436283
0.00435811
0.00436791
0.00439495
0.00444157
0.00450934
0.00459923
0.00471038
0.00484051
0.00498534
0.00513877
0.0052933
0.0054407
0.00557302
0.00568358
0.00576771
0.00582311
0.00584979
0.00584964
0.00582582
0.0057822
0.00572282
0.00565155
0.00557182
0.00548655
0.00539812
0.00530837
0.0052187
0.0051301
0.00504328
0.0049587
0.00487661
0.00479717
0.0047204
0.00464629
0.00457474
0.00450567
0.00443895
0.00437446
0.00431206
0.00425163
0.00419306
0.00413621
0.004081
0.00402731
0.00397505
0.00392414
0.0038745
0.00382606
0.00377875
0.00373251
0.00368729
0.00364305
0.00359973
0.0035573
0.00351572
0.00347496
0.00343501
0.00339584
0.00335743
0.00331978
0.00328288
0.00324676
0.00321142
0.00317689
0.00314321
0.00311043
0.00307854
0.00304743
0.00301675
0.00298698
2.3749e-05
0.000185225
0.000397043
0.000586781
0.000746933
0.00088172
0.000996888
0.00109761
0.00118806
0.00127144
0.00135013
0.00142586
0.00149983
0.00157289
0.00164561
0.00171835
0.00179133
0.00186469
0.00193848
0.00201272
0.00208741
0.00216251
0.00223798
0.00231377
0.00238983
0.00246611
0.00254254
0.00261908
0.00269567
0.00277226
0.00284878
0.00292519
0.00300142
0.00307743
0.00315317
0.00322857
0.00330359
0.00337818
0.00345228
0.00352585
0.00359883
0.00367118
0.00374284
0.00381378
0.00388395
0.00395329
0.00402177
0.00408934
0.00415595
0.00422155
0.00428611
0.00434958
0.00441189
0.00447302
0.0045329
0.00459148
0.00464871
0.00470453
0.00475887
0.00481169
0.0048629
0.00491245
0.00496025
0.00500624
0.00505032
0.00509243