/*--------------------------------*- C++ -*----------------------------------*\
| =========                 |                                                 |
| \\      /  F ield         | OpenFOAM: The Open Source CFD Toolbox           |
|  \\    /   O peration     | Version:  2.2.x                                 |
|   \\  /    A nd           | Web:      www.OpenFOAM.org                      |
|    \\/     M anipulation  |                                                 |
\*---------------------------------------------------------------------------*/
FoamFile
{
    version     2.0;
    format      ascii;
    class       volScalarField;
    location    "300";
    object      p;
}
// * * * * * * * * * * * * * * * * * * * * * * * * * * * * * * * * * * * * * //

dimensions      [0 2 -2 0 0 0 0];

internalField   nonuniform List<scalar> 
12225
(
-1.90946
-4.61412
-5.46152
-5.70044
-5.86356
-6.00363
-6.1161
-6.20899
-6.29077
-6.36569
-6.4357
-6.50204
-6.5657
-6.62739
-6.68751
-6.74531
-6.79785
-6.76108
-5.69795
-6.05268
-6.16321
-6.11719
-6.12319
-6.17092
-6.22792
-6.28594
-6.34486
-6.40435
-6.46368
-6.52248
-6.5807
-6.63842
-6.69575
-6.75291
-6.81481
-6.92638
-5.54507
-5.38994
-5.59141
-5.72545
-5.8479
-5.9724
-6.0836
-6.18002
-6.26615
-6.34511
-6.41856
-6.48771
-6.55358
-6.61709
-6.67909
-6.7411
-6.80838
-6.89981
-5.46063
-5.44943
-5.72164
-5.88933
-6.00023
-6.10017
-6.18823
-6.26494
-6.33461
-6.40007
-6.46258
-6.5229
-6.58166
-6.63942
-6.69695
-6.75567
-6.81937
-6.89679
-5.49702
-5.54595
-5.7579
-5.89389
-5.98571
-6.07381
-6.15729
-6.23376
-6.30509
-6.37296
-6.43808
-6.50092
-6.56194
-6.62167
-6.6808
-6.74052
-6.80291
-6.87023
-5.57115
-5.62149
-5.78156
-5.90453
-5.99652
-6.0844
-6.16796
-6.24479
-6.31615
-6.38358
-6.44793
-6.50975
-6.56957
-6.62792
-6.6854
-6.74279
-6.80098
-6.85967
-5.63671
-5.67862
-5.80523
-5.91849
-6.00883
-6.09344
-6.17377
-6.24829
-6.31788
-6.38382
-6.44689
-6.50756
-6.56628
-6.62345
-6.67945
-6.73464
-6.7891
-6.84139
-5.68817
-5.72479
-5.83086
-5.93432
-6.02101
-6.10214
-6.17958
-6.25221
-6.32051
-6.38544
-6.44761
-6.50742
-6.56522
-6.62129
-6.67587
-6.72905
-6.78059
-6.82888
-5.73183
-5.76475
-5.85509
-5.94932
-6.03203
-6.10995
-6.18476
-6.25556
-6.32255
-6.3864
-6.44759
-6.50646
-6.56326
-6.61818
-6.67135
-6.72268
-6.77182
-6.81722
-5.7773
-5.80648
-5.8823
-5.96683
-6.04481
-6.11909
-6.19091
-6.25954
-6.3249
-6.38739
-6.44737
-6.50508
-6.56067
-6.61426
-6.66585
-6.71526
-6.76211
-6.80509
-5.82377
-5.84912
-5.91223
-5.987
-6.05951
-6.12968
-6.19812
-6.26418
-6.32756
-6.38841
-6.44692
-6.50322
-6.55739
-6.60944
-6.65931
-6.7068
-6.75152
-6.79248
-5.87031
-5.89194
-5.94428
-6.00961
-6.07607
-6.14172
-6.20645
-6.26958
-6.33064
-6.38954
-6.4463
-6.50096
-6.5535
-6.60387
-6.65195
-6.69755
-6.74037
-6.77969
-5.91579
-5.93402
-5.97745
-6.03402
-6.09416
-6.15499
-6.21575
-6.27565
-6.33408
-6.39075
-6.44552
-6.49833
-6.54907
-6.59765
-6.64394
-6.68776
-6.72892
-6.7669
-5.95884
-5.97413
-6.01033
-6.05915
-6.11308
-6.16898
-6.22564
-6.28212
-6.33769
-6.39191
-6.44451
-6.49531
-6.54416
-6.59093
-6.63548
-6.67768
-6.7174
-6.75429
-5.99768
-6.01056
-6.04109
-6.08337
-6.13158
-6.18274
-6.23537
-6.28842
-6.34106
-6.39274
-6.44308
-6.49182
-6.53877
-6.58378
-6.62671
-6.66746
-6.70596
-6.74195
-6.02998
-6.04104
-6.0673
-6.10443
-6.14781
-6.19476
-6.24373
-6.29358
-6.34344
-6.39267
-6.44084
-6.48762
-6.53278
-6.57617
-6.61766
-6.65716
-6.69464
-6.72988
-6.0525
-6.0623
-6.08569
-6.11921
-6.15904
-6.20275
-6.24882
-6.29608
-6.34363
-6.3908
-6.43711
-6.48222
-6.52588
-6.56792
-6.60824
-6.64676
-6.68344
-6.71812
-6.06002
-6.06925
-6.09135
-6.12325
-6.16141
-6.20353
-6.24809
-6.29394
-6.34017
-6.38611
-6.43128
-6.47534
-6.51804
-6.55922
-6.59876
-6.63662
-6.67275
-6.707
-6.05187
-6.06116
-6.08352
-6.11582
-6.15436
-6.19672
-6.24136
-6.28717
-6.33328
-6.37903
-6.42395
-6.46773
-6.51015
-6.55105
-6.59034
-6.62798
-6.66394
-6.69807
-6.03231
-6.04205
-6.06582
-6.10019
-6.14076
-6.18476
-6.23068
-6.27748
-6.32433
-6.37061
-6.4159
-6.45993
-6.50248
-6.54345
-6.58275
-6.62035
-6.65624
-6.69028
-6.00454
-6.01486
-6.04107
-6.07909
-6.12308
-6.16976
-6.21781
-6.26635
-6.31457
-6.36193
-6.40806
-6.45274
-6.49582
-6.53719
-6.57681
-6.61467
-6.65077
-6.68501
-5.97097
-5.98146
-6.01118
-6.05462
-6.10314
-6.15311
-6.20377
-6.25443
-6.30432
-6.35294
-6.40003
-6.44545
-6.48907
-6.53085
-6.57074
-6.60875
-6.64489
-6.679
-5.93366
-5.94288
-5.97759
-6.02879
-6.08285
-6.13652
-6.19023
-6.24343
-6.29532
-6.34552
-6.39391
-6.44039
-6.48488
-6.52737
-6.56782
-6.60628
-6.64277
-6.67724
-5.89456
-5.8994
-5.94119
-6.00217
-6.06179
-6.11905
-6.17576
-6.2312
-6.28461
-6.33588
-6.38507
-6.43217
-6.47717
-6.52006
-6.56082
-6.59946
-6.63594
-6.66998
-5.85494
-5.85136
-5.90714
-5.98017
-6.04429
-6.10545
-6.16646
-6.22544
-6.28149
-6.33478
-6.38554
-6.43385
-6.47975
-6.52331
-6.56456
-6.60353
-6.64024
-6.67461
-5.81221
-5.78307
-5.86885
-5.9575
-6.02072
-6.08018
-6.14083
-6.19973
-6.25599
-6.30992
-6.36167
-6.41118
-6.45843
-6.5034
-6.54609
-6.58642
-6.62419
-6.65864
-5.80632
-5.69161
-5.83148
-5.96241
-6.04591
-6.11746
-6.18387
-6.24385
-6.29872
-6.35016
-6.3989
-6.44526
-6.48941
-6.53149
-6.5716
-6.60972
-6.64569
-6.67914
-5.90376
-5.57267
-5.64855
-5.75102
-5.84279
-5.93917
-6.03105
-6.11359
-6.18816
-6.25657
-6.31976
-6.3783
-6.43273
-6.48353
-6.53109
-6.57569
-6.61728
-6.65511
-6.20257
-6.26774
-6.30051
-6.2274
-6.19427
-6.20694
-6.23684
-6.27261
-6.31212
-6.35412
-6.39718
-6.44024
-6.48268
-6.52415
-6.56452
-6.60377
-6.64196
-6.68022
-2.50825
-4.70216
-5.5002
-5.72037
-5.8552
-5.97499
-6.07341
-6.1545
-6.22523
-6.28934
-6.34833
-6.40305
-6.45414
-6.50214
-6.54751
-6.59078
-6.63264
-6.67785
-7.64498
-7.6462
-7.6506
-7.65612
-7.66127
-7.66636
-7.67187
-7.67951
-7.69021
-7.70366
-7.71997
-7.73929
-7.7617
-7.78717
-7.8156
-7.84687
-7.88087
-7.91741
-7.9563
-7.99733
-8.04026
-8.08487
-8.13092
-8.17818
-8.22643
-8.27544
-8.325
-8.37493
-8.42503
-8.47513
-8.52508
-8.57474
-8.62396
-8.67264
-8.72066
-8.76794
-8.8144
-8.85997
-8.90458
-8.9482
-8.99079
-9.0323
-9.07273
-9.11206
-9.15027
-9.18739
-9.2234
-9.25833
-9.2922
-9.32502
-9.35683
-9.38764
-9.41749
-9.44643
-9.47447
-9.50167
-9.52806
-9.55368
-9.57859
-9.60282
-9.62641
-9.6494
-9.67183
-9.69373
-9.71511
-9.73598
-9.75634
-9.77616
-9.79543
-9.81407
-9.83201
-9.84916
-9.86537
-9.88047
-9.89425
-9.90643
-9.91671
-9.92471
-9.92999
-9.93203
-9.93024
-9.92394
-9.91236
-9.8946
-9.86968
-9.83646
-9.79373
-9.74012
-9.67417
-9.59425
-9.49853
-9.38504
-9.25171
-9.09644
-8.91711
-8.71132
-8.47622
-8.20863
-7.90559
-7.56448
-7.18284
-6.75831
-6.28877
-5.77238
-5.20775
-4.59398
-3.93078
-3.21863
-2.45887
-1.6538
-0.806759
0.0778091
0.994332
1.93615
2.89561
3.86422
4.83285
5.79202
6.73222
7.64433
8.51989
9.35152
10.1331
10.8597
11.5283
12.1371
12.6857
13.1756
13.6113
14.0037
14.3536
14.6562
14.9159
15.1373
15.3254
15.4843
15.6181
15.7304
15.8244
15.9028
15.9682
16.0227
16.0681
16.1061
16.1378
16.1645
16.187
16.2062
16.2227
16.237
16.2497
16.261
16.2712
16.2807
16.2895
16.2979
16.306
16.3137
16.3213
16.3286
16.3359
16.3431
16.3502
16.3571
16.364
16.3708
16.3776
16.3843
16.391
16.3979
16.4051
16.4129
16.4218
16.4325
16.4461
16.4645
16.4911
16.5321
16.6052
16.7227
-7.63768
-7.64109
-7.64544
-7.64932
-7.65167
-7.65266
-7.65389
-7.65698
-7.66333
-7.67312
-7.68631
-7.70288
-7.72282
-7.74609
-7.77256
-7.8021
-7.83454
-7.86971
-7.90739
-7.94735
-7.98935
-8.03317
-8.07854
-8.12523
-8.173
-8.22163
-8.2709
-8.3206
-8.37054
-8.42054
-8.47044
-8.52007
-8.56931
-8.61803
-8.66611
-8.71345
-8.75998
-8.80562
-8.85031
-8.89399
-8.93662
-8.97817
-9.01861
-9.05793
-9.09611
-9.13316
-9.16908
-9.20388
-9.23757
-9.27019
-9.30176
-9.3323
-9.36185
-9.39044
-9.41812
-9.44491
-9.47088
-9.49605
-9.52048
-9.54422
-9.56731
-9.58979
-9.61172
-9.63311
-9.654
-9.67441
-9.69433
-9.71377
-9.73269
-9.75106
-9.76881
-9.78586
-9.80207
-9.8173
-9.83134
-9.84394
-9.8548
-9.86358
-9.86984
-9.8731
-9.87279
-9.86823
-9.85869
-9.84329
-9.82109
-9.79097
-9.75175
-9.70209
-9.64056
-9.56555
-9.4753
-9.36786
-9.24124
-9.09346
-8.92252
-8.726
-8.50078
-8.24361
-7.95178
-7.62284
-7.25432
-6.84387
-6.38935
-5.88894
-5.34117
-4.74506
-4.10023
-3.40699
-2.6665
-1.88078
-1.05289
-0.186903
0.711996
1.63758
2.58263
3.53906
4.49817
5.45081
6.38775
7.30001
8.17921
9.01777
9.80913
10.5479
11.2304
11.8552
12.423
12.9366
13.3961
13.804
14.1641
14.478
14.7496
14.9832
15.1832
15.3537
15.4986
15.6212
15.7247
15.812
15.8856
15.9475
15.9997
16.0437
16.081
16.1126
16.1397
16.1629
16.183
16.2007
16.2162
16.2302
16.2428
16.2544
16.2652
16.2753
16.2849
16.294
16.3028
16.3113
16.3196
16.3277
16.3356
16.3434
16.3509
16.3584
16.3657
16.3729
16.3801
16.3875
16.3951
16.4034
16.4128
16.424
16.4382
16.4573
16.4847
16.5258
16.5968
16.6896
-7.60934
-7.61874
-7.62936
-7.63551
-7.63746
-7.63792
-7.6389
-7.64184
-7.64764
-7.65656
-7.66871
-7.68412
-7.70278
-7.72466
-7.74966
-7.77767
-7.80853
-7.84209
-7.87815
-7.9165
-7.95691
-7.99916
-8.04302
-8.08825
-8.13462
-8.18191
-8.22992
-8.27843
-8.32725
-8.37621
-8.42513
-8.47387
-8.52227
-8.57021
-8.61758
-8.66427
-8.71018
-8.75525
-8.79941
-8.84258
-8.88474
-8.92583
-8.96584
-9.00473
-9.0425
-9.07914
-9.11466
-9.14905
-9.18234
-9.21455
-9.24569
-9.2758
-9.3049
-9.33303
-9.36024
-9.38655
-9.41202
-9.4367
-9.46064
-9.48388
-9.50648
-9.52848
-9.54994
-9.57088
-9.59136
-9.61138
-9.63097
-9.65013
-9.66885
-9.6871
-9.70483
-9.72196
-9.73839
-9.75397
-9.76852
-9.78182
-9.79358
-9.80347
-9.8111
-9.81598
-9.81758
-9.81525
-9.80828
-9.79584
-9.77698
-9.75065
-9.71569
-9.67079
-9.61455
-9.54542
-9.46165
-9.36136
-9.2426
-9.10354
-8.94227
-8.75626
-8.54217
-8.29692
-8.01804
-7.70303
-7.34945
-6.95498
-6.51751
-6.03517
-5.50646
-4.93035
-4.30635
-3.63463
-2.91615
-2.1527
-1.34703
-0.502877
0.374971
1.28072
2.20758
3.14795
4.09352
5.03556
5.96515
6.8735
7.75215
8.59326
9.3898
10.136
10.8289
11.4689
12.056
12.5897
13.0709
13.5032
13.8881
14.226
14.5205
14.7755
14.9952
15.1838
15.345
15.4825
15.5996
15.699
15.7834
15.8551
15.916
15.9678
16.0121
16.05
16.0826
16.1108
16.1354
16.157
16.1761
16.1932
16.2087
16.2229
16.2359
16.2481
16.2595
16.2703
16.2806
16.2904
16.2999
16.3091
16.318
16.3266
16.335
16.3432
16.3511
16.359
16.3668
16.3746
16.3828
16.3915
16.4013
16.4129
16.4275
16.4467
16.4735
16.5118
16.5751
16.6366
-7.5708
-7.58621
-7.60541
-7.61729
-7.62329
-7.62714
-7.63094
-7.63598
-7.64308
-7.65276
-7.66527
-7.68074
-7.69921
-7.72067
-7.74506
-7.77229
-7.80223
-7.83473
-7.86963
-7.90673
-7.94583
-7.98672
-8.02919
-8.07302
-8.118
-8.16391
-8.21056
-8.25774
-8.30527
-8.35297
-8.40069
-8.44826
-8.49555
-8.54243
-8.58879
-8.63451
-8.67951
-8.7237
-8.76702
-8.8094
-8.8508
-8.89116
-8.93047
-8.9687
-9.00582
-9.04184
-9.07675
-9.11056
-9.14328
-9.17492
-9.20551
-9.23508
-9.26365
-9.29126
-9.31795
-9.34376
-9.36875
-9.39296
-9.41644
-9.43925
-9.46145
-9.48308
-9.5042
-9.52486
-9.54509
-9.56493
-9.58441
-9.60355
-9.62235
-9.64078
-9.65882
-9.67639
-9.69341
-9.70975
-9.72525
-9.7397
-9.75284
-9.76437
-9.7739
-9.78099
-9.78511
-9.78566
-9.78193
-9.77311
-9.75831
-9.73649
-9.70651
-9.66709
-9.61687
-9.55431
-9.47771
-9.3852
-9.27488
-9.145
-8.99365
-8.8181
-8.61493
-8.38126
-8.11468
-7.81266
-7.47276
-7.09262
-6.67008
-6.20323
-5.69049
-5.1307
-4.52325
-3.86815
-3.16614
-2.41883
-1.62872
-0.799265
0.0650209
0.958618
1.87504
2.80693
3.74624
4.6844
5.61257
6.52182
7.40333
8.24906
9.05222
9.8081
10.5161
11.1741
11.7787
12.33
12.8292
13.2788
13.6802
14.0344
14.3445
14.6144
14.848
15.0494
15.2225
15.3709
15.4978
15.6062
15.6987
15.7778
15.8454
15.9032
15.9529
15.9957
16.0328
16.065
16.0931
16.118
16.14
16.1598
16.1776
16.1939
16.2089
16.2228
16.2358
16.248
16.2596
16.2706
16.2812
16.2913
16.3011
16.3105
16.3196
16.3284
16.3369
16.3453
16.3535
16.3618
16.3703
16.3793
16.3893
16.4009
16.4152
16.4335
16.4583
16.4912
16.5432
16.5766
-7.53411
-7.55409
-7.58096
-7.59938
-7.61053
-7.61868
-7.62615
-7.63421
-7.64374
-7.65532
-7.66931
-7.68589
-7.70514
-7.72709
-7.75169
-7.77888
-7.80855
-7.84058
-7.87482
-7.9111
-7.94924
-7.98907
-8.03038
-8.07298
-8.11667
-8.16125
-8.20655
-8.25238
-8.29855
-8.34491
-8.39131
-8.43759
-8.48361
-8.52927
-8.57444
-8.61902
-8.66292
-8.70605
-8.74835
-8.78976
-8.83022
-8.8697
-8.90816
-8.94558
-8.98194
-9.01723
-9.05144
-9.08458
-9.11665
-9.14768
-9.17768
-9.20668
-9.23471
-9.26181
-9.28802
-9.31339
-9.33796
-9.36179
-9.38493
-9.40744
-9.42938
-9.4508
-9.47177
-9.49234
-9.51255
-9.53246
-9.55211
-9.57151
-9.59069
-9.60963
-9.62831
-9.64668
-9.66466
-9.68216
-9.69901
-9.71505
-9.73001
-9.74363
-9.75552
-9.76528
-9.7724
-9.77629
-9.77627
-9.77156
-9.76126
-9.74439
-9.7198
-9.68626
-9.6424
-9.58672
-9.51751
-9.43293
-9.33112
-9.21036
-9.06867
-8.90313
-8.71038
-8.48766
-8.23249
-7.94234
-7.6147
-7.24716
-6.83747
-6.38364
-5.88396
-5.33714
-4.74242
-4.0996
-3.40927
-2.67281
-1.89253
-1.0717
-0.214626
0.673351
1.58592
2.51583
3.45511
4.39506
5.32663
6.24053
7.12778
7.98118
8.79585
9.5677
10.2924
10.9657
11.5853
12.1507
12.6629
13.124
13.5356
13.8998
14.2195
14.4986
14.7409
14.9505
15.1312
15.2866
15.4201
15.5346
15.6327
15.7169
15.7891
15.8513
15.9049
15.9513
15.9916
16.0268
16.0577
16.085
16.1093
16.1311
16.1508
16.1688
16.1854
16.2007
16.215
16.2283
16.241
16.253
16.2645
16.2754
16.2859
16.296
16.3057
16.315
16.324
16.3328
16.3414
16.35
16.3586
16.3677
16.3776
16.3888
16.4022
16.4188
16.4403
16.4667
16.5063
16.5166
-7.50765
-7.53088
-7.5628
-7.58661
-7.60254
-7.61485
-7.62595
-7.63715
-7.64934
-7.66313
-7.67892
-7.69695
-7.71733
-7.74009
-7.76523
-7.79268
-7.82238
-7.85421
-7.88804
-7.92372
-7.96111
-8.00004
-8.04033
-8.0818
-8.12429
-8.16761
-8.21159
-8.25606
-8.30086
-8.34584
-8.39086
-8.43578
-8.48046
-8.52481
-8.56869
-8.61203
-8.65472
-8.69668
-8.73786
-8.77819
-8.81761
-8.8561
-8.89362
-8.93014
-8.96564
-9.00011
-9.03356
-9.06596
-9.09735
-9.12772
-9.1571
-9.18551
-9.213
-9.2396
-9.26535
-9.2903
-9.31451
-9.33802
-9.3609
-9.3832
-9.405
-9.42635
-9.44731
-9.46796
-9.48836
-9.50855
-9.5286
-9.54852
-9.56836
-9.58811
-9.60776
-9.62729
-9.64662
-9.66567
-9.68431
-9.70237
-9.71963
-9.73582
-9.7506
-9.76355
-9.77421
-9.78199
-9.78623
-9.78617
-9.78095
-9.76957
-9.75092
-9.72377
-9.68676
-9.63839
-9.57696
-9.50065
-9.4076
-9.29608
-9.16405
-9.00843
-8.82591
-8.61383
-8.36959
-8.09059
-7.77428
-7.41817
-7.01991
-6.57737
-6.08871
-5.5525
-4.96778
-4.33419
-3.65212
-2.92281
-2.14842
-1.33202
-0.47779
0.409011
1.32216
2.25434
3.19738
4.14221
5.07957
6.00039
6.89664
7.76356
8.5945
9.38166
10.1205
10.8072
11.4394
12.0164
12.539
13.0088
13.4281
13.7992
14.1255
14.4107
14.6588
14.8739
15.0598
15.22
15.358
15.4767
15.5787
15.6666
15.7423
15.8076
15.8642
15.9133
15.9561
15.9937
16.0267
16.056
16.0821
16.1056
16.1269
16.1463
16.1641
16.1806
16.196
16.2104
16.224
16.2369
16.2491
16.2608
16.2719
16.2826
16.2928
16.3026
16.3121
16.3212
16.3301
16.3388
16.3475
16.3565
16.366
16.3765
16.3886
16.4029
16.4206
16.44
16.4679
16.4592
-7.49756
-7.52185
-7.55573
-7.58257
-7.60177
-7.61721
-7.6312
-7.64501
-7.65949
-7.67526
-7.69271
-7.7121
-7.73356
-7.75713
-7.78283
-7.81061
-7.8404
-7.8721
-7.90561
-7.94079
-7.97752
-8.01563
-8.05497
-8.0954
-8.13674
-8.17884
-8.22154
-8.26469
-8.30814
-8.35175
-8.39539
-8.43893
-8.48226
-8.52526
-8.56783
-8.60988
-8.65132
-8.69208
-8.73209
-8.77129
-8.80964
-8.8471
-8.88363
-8.91922
-8.95383
-8.98747
-9.02011
-9.05177
-9.08244
-9.11214
-9.1409
-9.16874
-9.19571
-9.22183
-9.24715
-9.27173
-9.29562
-9.31888
-9.34157
-9.36375
-9.38551
-9.4069
-9.42801
-9.4489
-9.46965
-9.49033
-9.51099
-9.53168
-9.55243
-9.57328
-9.59422
-9.61523
-9.63627
-9.65726
-9.6781
-9.69862
-9.71863
-9.73788
-9.75603
-9.7727
-9.78741
-9.79962
-9.80868
-9.81385
-9.81425
-9.80892
-9.79675
-9.77652
-9.74685
-9.70625
-9.65302
-9.58533
-9.50132
-9.39921
-9.27689
-9.13121
-8.95888
-8.75719
-8.52348
-8.2551
-7.94938
-7.60376
-7.21575
-6.78309
-6.30378
-5.77621
-5.19926
-4.57236
-3.89574
-3.17051
-2.39874
-1.58333
-0.72834
0.160889
1.07805
2.01547
2.96468
3.91627
4.86176
5.79375
6.70517
7.58787
8.43303
9.23389
9.98548
10.684
11.327
11.9137
12.4446
12.9213
13.3463
13.7224
14.0532
14.3425
14.5944
14.8131
15.0023
15.1657
15.3068
15.4283
15.5332
15.6237
15.7019
15.7696
15.8284
15.8797
15.9245
15.9639
15.9987
16.0296
16.0572
16.0822
16.1047
16.1254
16.1444
16.1619
16.1783
16.1936
16.208
16.2217
16.2346
16.247
16.2587
16.27
16.2807
16.2909
16.3008
16.3102
16.3193
16.3281
16.3368
16.3455
16.3545
16.364
16.3745
16.3862
16.3998
16.4122
16.4297
16.4053
-7.50231
-7.52595
-7.55928
-7.58704
-7.60797
-7.62535
-7.64129
-7.65695
-7.67311
-7.69035
-7.70906
-7.72948
-7.75174
-7.77592
-7.802
-7.82996
-7.85975
-7.89126
-7.92441
-7.95908
-7.99514
-8.03246
-8.07089
-8.1103
-8.15054
-8.19147
-8.23294
-8.27481
-8.31696
-8.35924
-8.40155
-8.44376
-8.48576
-8.52746
-8.56875
-8.60954
-8.64977
-8.68934
-8.72821
-8.76632
-8.80362
-8.84007
-8.87564
-8.91031
-8.94406
-8.97687
-9.00874
-9.03966
-9.06965
-9.09871
-9.12688
-9.15418
-9.18065
-9.20634
-9.23129
-9.25556
-9.27919
-9.30226
-9.32484
-9.34699
-9.3688
-9.39036
-9.41174
-9.43303
-9.45431
-9.47565
-9.49713
-9.51881
-9.54073
-9.56294
-9.58546
-9.60827
-9.63137
-9.65467
-9.6781
-9.7015
-9.7247
-9.74746
-9.76946
-9.79033
-9.80962
-9.82678
-9.84119
-9.85211
-9.85869
-9.85994
-9.85477
-9.84195
-9.82011
-9.78772
-9.7431
-9.68438
-9.60969
-9.51718
-9.40467
-9.26898
-9.10676
-8.91524
-8.69171
-8.43343
-8.13766
-7.80168
-7.42289
-6.99884
-6.52739
-6.00673
-5.43555
-4.81306
-4.13932
-3.41538
-2.64321
-1.82559
-0.966501
-0.0717024
0.852249
1.79717
2.75475
3.7162
4.67521
5.62332
6.54978
7.44646
8.30505
9.11863
9.88187
10.5908
11.243
11.8374
12.3746
12.8564
13.2854
13.6646
13.998
14.2897
14.5437
14.7643
14.9555
15.1208
15.2637
15.3871
15.4938
15.5861
15.6661
15.7356
15.7962
15.8491
15.8955
15.9364
15.9726
16.0049
16.0339
16.06
16.0838
16.1055
16.1255
16.144
16.1613
16.1775
16.1927
16.2071
16.2207
16.2337
16.2461
16.2578
16.269
16.2797
16.2899
16.2996
16.3088
16.3177
16.3262
16.3346
16.3429
16.3514
16.3601
16.3689
16.3782
16.3841
16.3923
16.3549
-7.51896
-7.54067
-7.5716
-7.59851
-7.61972
-7.63788
-7.65479
-7.67147
-7.6886
-7.70672
-7.72617
-7.74718
-7.76988
-7.79432
-7.82051
-7.84843
-7.87802
-7.9092
-7.94188
-7.97595
-8.01129
-8.04779
-8.08532
-8.12374
-8.16291
-8.20272
-8.24302
-8.28369
-8.3246
-8.36564
-8.4067
-8.44767
-8.48844
-8.52891
-8.56901
-8.60864
-8.64773
-8.68621
-8.72403
-8.76111
-8.79744
-8.83296
-8.86764
-8.90147
-8.93441
-8.96646
-8.99761
-9.02786
-9.05722
-9.0857
-9.11334
-9.14016
-9.1662
-9.19152
-9.21615
-9.24016
-9.2636
-9.28656
-9.3091
-9.33131
-9.35328
-9.37511
-9.39689
-9.41871
-9.44067
-9.46285
-9.48533
-9.5082
-9.53152
-9.55534
-9.57971
-9.60463
-9.63009
-9.65604
-9.68242
-9.70909
-9.73588
-9.76256
-9.78885
-9.81438
-9.83871
-9.86131
-9.88156
-9.89872
-9.91195
-9.92027
-9.92257
-9.91761
-9.90402
-9.88026
-9.8446
-9.79518
-9.73005
-9.64733
-9.54475
-9.41902
-9.26676
-9.08516
-8.87144
-8.62279
-8.33635
-8.00925
-7.63873
-7.22216
-6.7572
-6.24188
-5.67466
-5.05444
-4.38113
-3.65573
-2.88024
-2.05736
-1.19106
-0.287958
0.645272
1.60043
2.57057
3.54801
4.52285
5.48572
6.4266
7.33674
8.20789
9.03299
9.80646
10.5242
11.1837
11.7839
12.3256
12.8105
13.2416
13.6222
13.9566
14.2489
14.5036
14.7248
14.9166
15.0827
15.2265
15.3509
15.4588
15.5523
15.6336
15.7043
15.7662
15.8204
15.8681
15.9103
15.9478
15.9813
16.0114
16.0386
16.0634
16.0862
16.1071
16.1266
16.1447
16.1617
16.1777
16.1928
16.2071
16.2207
16.2336
16.2459
16.2576
16.2687
16.2792
16.2891
16.2985
16.3074
16.3158
16.3237
16.3313
16.3385
16.3453
16.3512
16.3562
16.3562
16.3562
16.3083
-7.54387
-7.56274
-7.58993
-7.61457
-7.63484
-7.65273
-7.66971
-7.68662
-7.70406
-7.72246
-7.74213
-7.76327
-7.78599
-7.81034
-7.83633
-7.86395
-7.89312
-7.92379
-7.95586
-7.98923
-8.0238
-8.05944
-8.09605
-8.13349
-8.17164
-8.21038
-8.24959
-8.28915
-8.32894
-8.36886
-8.40879
-8.44864
-8.4883
-8.5277
-8.56674
-8.60534
-8.64344
-8.68096
-8.71784
-8.75405
-8.78952
-8.82423
-8.85814
-8.89122
-8.92347
-8.95485
-8.98538
-9.01504
-9.04385
-9.07183
-9.09901
-9.12543
-9.15111
-9.17611
-9.20049
-9.2243
-9.24762
-9.27052
-9.29311
-9.31546
-9.33768
-9.35988
-9.38216
-9.40463
-9.42739
-9.45055
-9.4742
-9.49844
-9.52336
-9.54902
-9.57547
-9.60275
-9.63086
-9.65976
-9.6894
-9.71967
-9.7504
-9.78139
-9.81235
-9.84293
-9.87271
-9.90117
-9.92768
-9.9515
-9.97179
-9.98758
-9.99773
-10.001
-9.99603
-9.98121
-9.95481
-9.91491
-9.85956
-9.78677
-9.69416
-9.57829
-9.43573
-9.26372
-9.05942
-8.81992
-8.5422
-8.22326
-7.86014
-7.45002
-6.99034
-6.4789
-5.9139
-5.29386
-4.61853
-3.88897
-3.10736
-2.27648
-1.40015
-0.486053
0.459812
1.43103
2.4182
3.41218
4.40319
5.38117
6.33607
7.25882
8.14117
8.97605
9.75779
10.4822
11.1469
11.7508
12.2947
12.7808
13.212
13.5923
13.926
14.2175
14.4714
14.692
14.8835
15.0495
15.1934
15.3182
15.4265
15.5208
15.6029
15.6746
15.7375
15.7927
15.8415
15.8848
15.9234
15.958
15.9892
16.0175
16.0433
16.067
16.0889
16.1092
16.1282
16.146
16.1627
16.1786
16.1936
16.2078
16.2213
16.2341
16.2463
16.2578
16.2686
16.2788
16.2883
16.2972
16.3054
16.3128
16.3196
16.3255
16.3303
16.3333
16.3342
16.3286
16.3216
16.2652
-7.57306
-7.58852
-7.6111
-7.63244
-7.6508
-7.66757
-7.68387
-7.70034
-7.71747
-7.73562
-7.75503
-7.77587
-7.79824
-7.82217
-7.84768
-7.87474
-7.90329
-7.93327
-7.9646
-7.99718
-8.03091
-8.06568
-8.10137
-8.13787
-8.17506
-8.21282
-8.25104
-8.28961
-8.32841
-8.36734
-8.40631
-8.44521
-8.48394
-8.52243
-8.56059
-8.59834
-8.63562
-8.67235
-8.70848
-8.74396
-8.77874
-8.81279
-8.84607
-8.87855
-8.91022
-8.94106
-8.97107
-9.00025
-9.02862
-9.05619
-9.08299
-9.10906
-9.13445
-9.1592
-9.18338
-9.20705
-9.23029
-9.2532
-9.27589
-9.29844
-9.32098
-9.34362
-9.36649
-9.38969
-9.41336
-9.43761
-9.46257
-9.48833
-9.515
-9.54267
-9.57141
-9.60127
-9.63225
-9.66436
-9.69753
-9.73167
-9.76664
-9.80223
-9.83818
-9.87415
-9.90971
-9.94435
-9.97744
-10.0082
-10.0359
-10.0594
-10.0777
-10.0895
-10.0934
-10.0877
-10.0707
-10.0405
-9.99495
-9.93217
-9.84947
-9.74316
-9.6099
-9.44704
-9.25169
-9.02077
-8.75115
-8.43964
-8.08306
-7.67838
-7.22278
-6.71385
-6.14947
-5.52767
-4.84819
-4.11233
-3.3226
-2.48204
-1.59329
-0.662879
0.300704
1.29047
2.29705
3.31002
4.31864
5.31228
6.28071
7.21475
8.10632
8.94855
9.73591
10.4644
11.1315
11.7365
12.2803
12.7652
13.1946
13.5727
13.904
14.1932
14.4451
14.6641
14.8543
15.0194
15.1627
15.2874
15.3959
15.4904
15.5731
15.6455
15.7092
15.7654
15.8152
15.8595
15.8991
15.9347
15.9669
15.9962
16.023
16.0476
16.0704
16.0916
16.1115
16.1301
16.1476
16.1642
16.1799
16.1948
16.2089
16.2223
16.2349
16.2469
16.2581
16.2685
16.2782
16.287
16.2949
16.3019
16.3078
16.3123
16.3151
16.3154
16.3124
16.3018
16.2887
16.2254
-7.60273
-7.61451
-7.63204
-7.64943
-7.66518
-7.68018
-7.69517
-7.71066
-7.72699
-7.74444
-7.76319
-7.78337
-7.80506
-7.82829
-7.85307
-7.87936
-7.90712
-7.93628
-7.96677
-7.9985
-8.03136
-8.06525
-8.10006
-8.13568
-8.17199
-8.20889
-8.24626
-8.28398
-8.32197
-8.3601
-8.39828
-8.43642
-8.47443
-8.51222
-8.5497
-8.5868
-8.62346
-8.6596
-8.69517
-8.73012
-8.76439
-8.79795
-8.83075
-8.86279
-8.89402
-8.92444
-8.95405
-8.98286
-9.01087
-9.03811
-9.06461
-9.0904
-9.11554
-9.14009
-9.1641
-9.18766
-9.21087
-9.23382
-9.25663
-9.27942
-9.30232
-9.32544
-9.34894
-9.37294
-9.39758
-9.42301
-9.44935
-9.47674
-9.50529
-9.53512
-9.56629
-9.59888
-9.63292
-9.66841
-9.70531
-9.74354
-9.78297
-9.8234
-9.86458
-9.90617
-9.94775
-9.98878
-10.0287
-10.0666
-10.1019
-10.1333
-10.1599
-10.1803
-10.193
-10.1965
-10.1889
-10.1682
-10.1324
-10.0795
-10.0064
-9.90909
-9.78449
-9.63013
-9.44303
-9.22
-8.95771
-8.65278
-8.30184
-7.90162
-7.44911
-6.94174
-6.37747
-5.75414
-5.07049
-4.32738
-3.52717
-2.67318
-1.76898
-0.819838
0.165656
1.17858
2.20837
3.24347
4.27196
5.28232
6.26396
7.20773
8.10596
8.95235
9.74189
10.4709
11.1372
11.7401
12.2809
12.7621
13.1875
13.5614
13.8887
14.1743
14.423
14.6393
14.8274
14.991
15.1334
15.2574
15.3657
15.4603
15.5434
15.6163
15.6807
15.7378
15.7884
15.8337
15.8743
15.9109
15.9441
15.9744
16.0022
16.0278
16.0516
16.0737
16.0944
16.1138
16.1322
16.1496
16.166
16.1816
16.1963
16.2103
16.2235
16.2359
16.2474
16.2581
16.2679
16.2767
16.2844
16.2909
16.2959
16.2991
16.3
16.2976
16.2911
16.2759
16.2575
16.1889
-7.62959
-7.63768
-7.65008
-7.66319
-7.6759
-7.68865
-7.7019
-7.71598
-7.73111
-7.74748
-7.76523
-7.78446
-7.80522
-7.82752
-7.85137
-7.87674
-7.90359
-7.93185
-7.96146
-7.99231
-8.02432
-8.05738
-8.09139
-8.12623
-8.16179
-8.19797
-8.23465
-8.27172
-8.30908
-8.34662
-8.38424
-8.42185
-8.45935
-8.49666
-8.53369
-8.57038
-8.60663
-8.6424
-8.67761
-8.71221
-8.74616
-8.7794
-8.81189
-8.84362
-8.87455
-8.90468
-8.934
-8.96252
-8.99026
-9.01723
-9.04347
-9.06902
-9.09394
-9.11829
-9.14215
-9.16561
-9.18878
-9.21177
-9.23471
-9.25773
-9.28096
-9.30456
-9.32868
-9.35348
-9.37911
-9.40574
-9.43352
-9.46258
-9.49308
-9.52513
-9.55883
-9.59426
-9.63147
-9.67047
-9.71124
-9.7537
-9.79774
-9.84317
-9.88973
-9.93707
-9.98478
-10.0323
-10.0791
-10.1243
-10.1671
-10.2065
-10.2413
-10.2702
-10.2918
-10.3043
-10.3058
-10.2943
-10.2681
-10.2248
-10.1607
-10.0717
-9.95506
-9.80864
-9.62932
-9.41372
-9.15836
-8.8597
-8.51417
-8.11829
-7.66876
-7.16274
-6.59797
-5.97257
-5.28462
-4.53402
-3.72247
-2.85295
-1.92953
-0.958063
0.0528802
1.09311
2.15064
3.21221
4.26418
5.29356
6.28895
7.24116
8.14323
8.98997
9.77741
10.5027
11.164
11.7612
12.2957
12.7704
13.1891
13.5568
13.8783
14.1589
14.4034
14.6162
14.8016
14.9631
15.1041
15.2272
15.3351
15.4297
15.513
15.5864
15.6515
15.7093
15.7609
15.8071
15.8487
15.8864
15.9206
15.9519
15.9807
16.0074
16.0321
16.0552
16.0768
16.0972
16.1164
16.1345
16.1518
16.1681
16.1835
16.1981
16.2119
16.2247
16.2367
16.2477
16.2577
16.2665
16.2739
16.2799
16.2841
16.286
16.2851
16.2802
16.2703
16.251
16.2279
16.1553
-7.6512
-7.65576
-7.66323
-7.67203
-7.68147
-7.69167
-7.70285
-7.71518
-7.72879
-7.7438
-7.7603
-7.77834
-7.79798
-7.81921
-7.84202
-7.86638
-7.89225
-7.91958
-7.94829
-7.97829
-8.0095
-8.04181
-8.07512
-8.1093
-8.14426
-8.17988
-8.21605
-8.25265
-8.28958
-8.32673
-8.364
-8.40129
-8.43851
-8.47556
-8.51236
-8.54882
-8.58488
-8.62046
-8.6555
-8.68993
-8.7237
-8.75677
-8.78908
-8.82061
-8.85134
-8.88125
-8.91034
-8.93862
-8.9661
-8.99281
-9.01878
-9.04406
-9.06872
-9.09282
-9.11646
-9.13975
-9.1628
-9.18575
-9.20873
-9.23188
-9.25538
-9.27938
-9.30407
-9.32962
-9.35621
-9.38402
-9.41323
-9.444
-9.47647
-9.5108
-9.5471
-9.58545
-9.62594
-9.66858
-9.71336
-9.76022
-9.80904
-9.85962
-9.91172
-9.96498
-10.019
-10.0732
-10.127
-10.1795
-10.23
-10.2774
-10.3204
-10.3578
-10.3881
-10.4094
-10.4198
-10.4175
-10.4006
-10.3665
-10.3106
-10.2289
-10.1198
-9.98083
-9.80879
-9.60015
-9.35129
-9.0585
-8.71806
-8.32629
-7.87966
-7.37494
-6.80943
-6.18089
-5.48749
-4.72866
-3.90534
-3.01996
-2.07652
-1.0811
-0.0423668
1.02862
2.11841
3.21173
4.29247
5.3452
6.35673
7.31733
8.22086
9.06386
9.84425
10.5606
11.2122
11.7993
12.3237
12.7885
13.198
13.5573
13.8714
14.1456
14.3848
14.5934
14.7755
14.9346
15.0739
15.196
15.3033
15.3978
15.4813
15.5552
15.621
15.6796
15.7321
15.7794
15.822
15.8608
15.8961
15.9286
15.9585
15.9862
16.0119
16.036
16.0586
16.0799
16.1001
16.1191
16.1371
16.1542
16.1704
16.1857
16.2
16.2135
16.2259
16.2372
16.2473
16.2562
16.2635
16.269
16.2723
16.2731
16.2704
16.2631
16.2503
16.2273
16.2001
16.1245
-7.66597
-7.66734
-7.6703
-7.67494
-7.68104
-7.68851
-7.69738
-7.7077
-7.71952
-7.73291
-7.74792
-7.76458
-7.78291
-7.80291
-7.82458
-7.84787
-7.87274
-7.89914
-7.92698
-7.9562
-7.98669
-8.01834
-8.05107
-8.08474
-8.11925
-8.15447
-8.19031
-8.22663
-8.26333
-8.30029
-8.33741
-8.37458
-8.41171
-8.44869
-8.48544
-8.52187
-8.55791
-8.59346
-8.62846
-8.66285
-8.69656
-8.72953
-8.76174
-8.79313
-8.82368
-8.85339
-8.88224
-8.91024
-8.93741
-8.96378
-8.98938
-9.01428
-9.03855
-9.06228
-9.08556
-9.10853
-9.1313
-9.15404
-9.1769
-9.20005
-9.22367
-9.24795
-9.27309
-9.2993
-9.32678
-9.35573
-9.38634
-9.41879
-9.45326
-9.48991
-9.52886
-9.57024
-9.61412
-9.66054
-9.70949
-9.76091
-9.81468
-9.87061
-9.92844
-9.98781
-10.0483
-10.1093
-10.1703
-10.2303
-10.2886
-10.344
-10.3953
-10.4411
-10.4799
-10.5098
-10.5289
-10.5356
-10.5277
-10.5022
-10.4531
-10.3778
-10.2754
-10.1432
-9.97754
-9.77493
-9.53157
-9.24362
-8.90721
-8.5185
-8.07379
-7.56962
-7.00294
-6.37121
-5.67246
-4.90579
-4.07159
-3.17171
-2.20972
-1.19139
-0.125151
0.977658
2.10262
3.23253
4.34835
5.43101
6.46396
7.43548
8.33972
9.17546
9.94362
10.6454
11.2816
11.8535
12.3635
12.815
13.2125
13.5611
13.8662
14.1328
14.3658
14.5696
14.748
14.9044
15.0419
15.1628
15.2696
15.364
15.4478
15.5223
15.5888
15.6484
15.7019
15.7502
15.7941
15.834
15.8705
15.9041
15.9352
15.964
15.9909
16.0161
16.0398
16.0621
16.0832
16.1032
16.1221
16.1401
16.157
16.173
16.188
16.202
16.2149
16.2266
16.237
16.2459
16.253
16.2582
16.2608
16.2604
16.2561
16.2467
16.2312
16.2051
16.1741
16.0964
-7.67332
-7.67202
-7.67103
-7.67183
-7.67464
-7.67926
-7.68559
-7.69363
-7.70338
-7.71489
-7.72816
-7.74321
-7.76006
-7.7787
-7.79912
-7.82127
-7.84512
-7.8706
-7.89763
-7.92612
-7.95598
-7.98711
-8.01938
-8.05268
-8.08689
-8.1219
-8.15757
-8.19379
-8.23043
-8.26739
-8.30453
-8.34176
-8.37897
-8.41604
-8.45289
-8.48942
-8.52554
-8.56117
-8.59622
-8.63062
-8.66431
-8.69723
-8.72932
-8.76055
-8.79088
-8.82031
-8.84883
-8.87643
-8.90315
-8.92902
-8.95409
-8.97842
-9.0021
-9.02523
-9.04794
-9.07036
-9.09264
-9.11495
-9.13747
-9.1604
-9.18395
-9.20833
-9.23378
-9.26052
-9.28877
-9.31877
-9.35071
-9.38482
-9.42127
-9.46026
-9.50192
-9.5464
-9.59376
-9.64407
-9.69731
-9.75342
-9.81228
-9.87368
-9.93737
-10.003
-10.07
-10.138
-10.2062
-10.2737
-10.3397
-10.403
-10.4624
-10.5164
-10.5634
-10.6015
-10.629
-10.6441
-10.6445
-10.6255
-10.5818
-10.5122
-10.4156
-10.2889
-10.1285
-9.9307
-9.69151
-9.40703
-9.07328
-8.68631
-8.24229
-7.73764
-7.16913
-6.53403
-5.83023
-5.0566
-4.21318
-3.30137
-2.3242
-1.28682
-0.196928
0.934702
2.09372
3.26192
4.41769
5.53771
6.60015
7.58884
8.49629
9.32318
10.0746
10.7558
11.3706
11.922
12.413
12.8475
13.2301
13.566
13.8604
14.1184
14.3446
14.5432
14.7177
14.8714
15.0071
15.127
15.2333
15.3278
15.412
15.4872
15.5546
15.6152
15.6699
15.7195
15.7646