/*--------------------------------*- C++ -*----------------------------------*\
| =========                 |                                                 |
| \\      /  F ield         | OpenFOAM: The Open Source CFD Toolbox           |
|  \\    /   O peration     | Version:  2.2.x                                 |
|   \\  /    A nd           | Web:      www.OpenFOAM.org                      |
|    \\/     M anipulation  |                                                 |
\*---------------------------------------------------------------------------*/
FoamFile
{
    version     2.0;
    format      ascii;
    class       surfaceScalarField;
    location    "300";
    object      phi;
}
// * * * * * * * * * * * * * * * * * * * * * * * * * * * * * * * * * * * * * //

dimensions      [0 3 -1 0 0 0 0];

internalField   nonuniform List<scalar> 
24170
(
3.08815e-06
4.5742e-08
3.01417e-06
7.39792e-08
2.95199e-06
6.21824e-08
2.88966e-06
6.23293e-08
2.83004e-06
5.96246e-08
2.77454e-06
5.55022e-08
2.72319e-06
5.13468e-08
2.67572e-06
4.74663e-08
2.63183e-06
4.38889e-08
2.59123e-06
4.06044e-08
2.55364e-06
3.75941e-08
2.5188e-06
3.48346e-08
2.4865e-06
3.23032e-08
2.45651e-06
2.99867e-08
2.4286e-06
2.7911e-08
2.40223e-06
2.63664e-08
2.37522e-06
2.70183e-08
3.05003e-08
2.34472e-06
3.46857e-06
3.36159e-08
3.45789e-06
8.4659e-08
3.44334e-06
7.67391e-08
3.42848e-06
7.71901e-08
3.41223e-06
7.58681e-08
3.39503e-06
7.27084e-08
3.37718e-06
6.9195e-08
3.35893e-06
6.57156e-08
3.34051e-06
6.23154e-08
3.3221e-06
5.90118e-08
3.30387e-06
5.58217e-08
3.28595e-06
5.27545e-08
3.26844e-06
4.98165e-08
3.2514e-06
4.70233e-08
3.23488e-06
4.44337e-08
3.21898e-06
4.22621e-08
3.20522e-06
4.07811e-08
3.81085e-08
3.19761e-06
3.80921e-06
3.65984e-08
3.81782e-06
7.60498e-08
3.82003e-06
7.45386e-08
3.82205e-06
7.51624e-08
3.82279e-06
7.51266e-08
3.8222e-06
7.33034e-08
3.8206e-06
7.07956e-08
3.81823e-06
6.8083e-08
3.81527e-06
6.52756e-08
3.81186e-06
6.24254e-08
3.80811e-06
5.95758e-08
3.8041e-06
5.67566e-08
3.79993e-06
5.39884e-08
3.79566e-06
5.12932e-08
3.79139e-06
4.87095e-08
3.78735e-06
4.6297e-08
3.78423e-06
4.39065e-08
3.99591e-08
3.78238e-06
4.20601e-06
3.51539e-08
4.21519e-06
6.686e-08
4.2195e-06
7.02361e-08
4.22309e-06
7.15724e-08
4.22601e-06
7.22013e-08
4.22821e-06
7.11101e-08
4.22989e-06
6.91138e-08
4.23121e-06
6.67639e-08
4.23224e-06
6.42391e-08
4.23305e-06
6.16167e-08
4.23368e-06
5.89511e-08
4.23416e-06
5.62785e-08
4.23453e-06
5.36204e-08
4.23483e-06
5.09902e-08
4.23515e-06
4.83924e-08
4.23566e-06
4.57871e-08
4.23665e-06
4.29156e-08
3.878e-08
4.23783e-06
4.64071e-06
3.17559e-08
4.64862e-06
5.89478e-08
4.65353e-06
6.53215e-08
4.65765e-06
6.74557e-08
4.6614e-06
6.84506e-08
4.66468e-06
6.78287e-08
4.66758e-06
6.62127e-08
4.6702e-06
6.41476e-08
4.67259e-06
6.18505e-08
4.67479e-06
5.94159e-08
4.67684e-06
5.69045e-08
4.67876e-06
5.43555e-08
4.68059e-06
5.179e-08
4.68237e-06
4.92133e-08
4.68415e-06
4.66092e-08
4.68603e-06
4.39058e-08
4.68806e-06
4.08928e-08
3.7103e-08
4.68973e-06
5.11833e-06
2.80201e-08
5.1255e-06
5.17753e-08
5.13098e-06
5.98491e-08
5.13564e-06
6.27893e-08
5.13995e-06
6.41408e-08
5.14384e-06
6.39415e-08
5.14736e-06
6.26974e-08
5.15059e-06
6.09168e-08
5.1536e-06
5.88429e-08
5.15642e-06
5.65889e-08
5.1591e-06
5.42243e-08
5.16167e-06
5.17929e-08
5.16414e-06
4.9317e-08
5.16656e-06
4.67991e-08
5.16895e-06
4.42168e-08
5.17135e-06
4.15033e-08
5.17372e-06
3.85215e-08
3.50778e-08
5.17575e-06
5.64453e-06
2.4501e-08
5.65118e-06
4.51228e-08
5.657e-06
5.40306e-08
5.6621e-06
5.76901e-08
5.66683e-06
5.94042e-08
5.67118e-06
5.9594e-08
5.67517e-06
5.87087e-08
5.67887e-06
5.7213e-08
5.68235e-06
5.53659e-08
5.68564e-06
5.32977e-08
5.68878e-06
5.1087e-08
5.69179e-06
4.87828e-08
5.6947e-06
4.64106e-08
5.69753e-06
4.39751e-08
5.70028e-06
4.14595e-08
5.70297e-06
3.88191e-08
5.7055e-06
3.5985e-08
3.2911e-08
5.70767e-06
4.40851e-06
2.2102e-08
4.41291e-06
4.07282e-08
4.41718e-06
4.97562e-08
4.42104e-06
5.3826e-08
4.42466e-06
5.57909e-08
4.42803e-06
5.62252e-08
4.43116e-06
5.55787e-08
4.43408e-06
5.42862e-08
4.43684e-06
5.26065e-08
4.43946e-06
5.06788e-08
4.44196e-06
4.85877e-08
4.44436e-06
4.63861e-08
4.44667e-06
4.41028e-08
4.4489e-06
4.17465e-08
4.45105e-06
3.93078e-08
4.45311e-06
3.67602e-08
4.45503e-06
3.40703e-08
3.12499e-08
4.45669e-06
5.1423e-06
1.96576e-08
5.14677e-06
3.62577e-08
5.15136e-06
4.51681e-08
5.15566e-06
4.95245e-08
5.15975e-06
5.17008e-08
5.16361e-06
5.23633e-08
5.16724e-06
5.19534e-08
5.17065e-06
5.08722e-08
5.17389e-06
4.9374e-08
5.17696e-06
4.76036e-08
5.1799e-06
4.56506e-08
5.18272e-06
4.35719e-08
5.18542e-06
4.14002e-08
5.18802e-06
3.91501e-08
5.1905e-06
3.6822e-08
5.19286e-06
3.44074e-08
5.19503e-06
3.19007e-08
2.93466e-08
5.19693e-06
5.99825e-06
1.72002e-08
6.00273e-06
3.17745e-08
6.00758e-06
4.0326e-08
6.01228e-06
4.48173e-08
6.01684e-06
4.71405e-08
6.02121e-06
4.79959e-08
6.02536e-06
4.78063e-08
6.02929e-06
4.69351e-08
6.03304e-06
4.56265e-08
6.03662e-06
4.40274e-08
6.04004e-06
4.22306e-08
6.04332e-06
4.02965e-08
6.04646e-06
3.82623e-08
6.04946e-06
3.61494e-08
6.05231e-06
3.39684e-08
6.05499e-06
3.17263e-08
6.05746e-06
2.94368e-08
2.71564e-08
6.05965e-06
6.99671e-06
1.47606e-08
7.00114e-06
2.73381e-08
7.00618e-06
3.52859e-08
7.01126e-06
3.97413e-08
7.01627e-06
4.21292e-08
7.02114e-06
4.31248e-08
7.02582e-06
4.31249e-08
7.03031e-06
4.24517e-08
7.0346e-06
4.13336e-08
7.03871e-06
3.99154e-08
7.04265e-06
3.82911e-08
7.04643e-06
3.65234e-08
7.05004e-06
3.46542e-08
7.05348e-06
3.27109e-08
7.05673e-06
3.07132e-08
7.05978e-06
2.86793e-08
7.06258e-06
2.66337e-08
2.46323e-08
7.06511e-06
8.16141e-06
1.23654e-08
8.16576e-06
2.29843e-08
8.17094e-06
3.01049e-08
8.17635e-06
3.43373e-08
8.18179e-06
3.66891e-08
8.18716e-06
3.77573e-08
8.19238e-06
3.7903e-08
8.19742e-06
3.74063e-08
8.20229e-06
3.64731e-08
8.20696e-06
3.52415e-08
8.21145e-06
3.38039e-08
8.21575e-06
3.22241e-08
8.21986e-06
3.05467e-08
8.22377e-06
2.88043e-08
8.22746e-06
2.70227e-08
8.23091e-06
2.52266e-08
8.2341e-06
2.34439e-08
2.17236e-08
8.23701e-06
9.52006e-06
1.00314e-08
9.52432e-06
1.87264e-08
9.5296e-06
2.48297e-08
9.53529e-06
2.8645e-08
9.54114e-06
3.084e-08
9.547e-06
3.18987e-08
9.55277e-06
3.21341e-08
9.55839e-06
3.17825e-08
9.56384e-06
3.10223e-08
9.56911e-06
2.99793e-08
9.57417e-06
2.87409e-08
9.57903e-06
2.73691e-08
9.58367e-06
2.59093e-08
9.58807e-06
2.43963e-08
9.59224e-06
2.28589e-08
9.59614e-06
2.13233e-08
9.59977e-06
1.98163e-08
1.83778e-08
9.60311e-06
1.1105e-05
7.76041e-09
1.11092e-05
1.4553e-08
1.11145e-05
1.94841e-08
1.11205e-05
2.26925e-08
1.11267e-05
2.4594e-08
1.11331e-05
2.55471e-08
1.11394e-05
2.58044e-08
1.11456e-05
2.55568e-08
1.11517e-05
2.49506e-08
1.11576e-05
2.40936e-08
1.11632e-05
2.30636e-08
1.11687e-05
2.19174e-08
1.11739e-05
2.06981e-08
1.11789e-05
1.94393e-08
1.11836e-05
1.81688e-08
1.1188e-05
1.6911e-08
1.11921e-05
1.56887e-08
1.45327e-08
1.11959e-05
1.29539e-05
5.53528e-09
1.2958e-05
1.0425e-08
1.29634e-05
1.40543e-08
1.29696e-05
1.64798e-08
1.29763e-05
1.79427e-08
1.29831e-05
1.86829e-08
1.29901e-05
1.8885e-08
1.29969e-05
1.8691e-08
1.30037e-05
1.8212e-08
1.30102e-05
1.75324e-08
1.30166e-05
1.67154e-08
1.30227e-05
1.58083e-08
1.30285e-05
1.48478e-08
1.30341e-05
1.38628e-08
1.30394e-05
1.2877e-08
1.30444e-05
1.19104e-08
1.30491e-05
1.09805e-08
1.01102e-08
1.30535e-05
1.51107e-05
3.31363e-09
1.51148e-05
6.2636e-09
1.51204e-05
8.46993e-09
1.5127e-05
9.95065e-09
1.51341e-05
1.08302e-08
1.51415e-05
1.12456e-08
1.51491e-05
1.13105e-08
1.51567e-05
1.11151e-08
1.51641e-05
1.07314e-08
1.51715e-05
1.02159e-08
1.51786e-05
9.6118e-09
1.51854e-05
8.95277e-09
1.5192e-05
8.26499e-09
1.51983e-05
7.56939e-09
1.52043e-05
6.88291e-09
1.521e-05
6.21936e-09
1.52154e-05
5.59044e-09
5.01216e-09
1.52205e-05
1.76267e-05
1.01954e-09
1.76311e-05
1.9283e-09
1.7637e-05
2.57095e-09
1.7644e-05
2.94964e-09
1.76517e-05
3.10685e-09
1.76599e-05
3.08995e-09
1.76682e-05
2.93993e-09
1.76767e-05
2.6914e-09
1.7685e-05
2.37333e-09
1.76932e-05
2.0094e-09
1.77012e-05
1.61858e-09
1.7709e-05
1.21609e-09
1.77164e-05
8.14281e-10
1.77236e-05
4.23161e-10
1.77304e-05
5.08783e-11
1.77369e-05
-2.96018e-10
1.77431e-05
-6.11979e-10
-8.86934e-10
1.7749e-05
1.78284e-05
-1.1648e-09
1.78325e-05
-2.22148e-09
1.78382e-05
-3.11455e-09
1.7845e-05
-3.841e-09
1.78525e-05
-4.42156e-09
1.78605e-05
-4.89011e-09
1.78687e-05
-5.27544e-09
1.7877e-05
-5.59661e-09
1.78853e-05
-5.86681e-09
1.78934e-05
-6.09526e-09
1.79013e-05
-6.28816e-09
1.79089e-05
-6.44934e-09
1.79163e-05
-6.58104e-09
1.79234e-05
-6.68453e-09
1.79303e-05
-6.76051e-09
1.79368e-05
-6.80932e-09
1.7943e-05
-6.83081e-09
-6.81993e-09
1.79489e-05
1.58833e-05
-3.12705e-09
1.5887e-05
-5.96021e-09
1.58922e-05
-8.24238e-09
1.58983e-05
-9.94946e-09
1.5905e-05
-1.11683e-08
1.59122e-05
-1.20195e-08
1.59195e-05
-1.2598e-08
1.59269e-05
-1.29703e-08
1.59342e-05
-1.31875e-08
1.59414e-05
-1.32883e-08
1.59484e-05
-1.33013e-08
1.59552e-05
-1.3247e-08
1.59617e-05
-1.31404e-08
1.5968e-05
-1.29923e-08
1.59741e-05
-1.28111e-08
1.59799e-05
-1.26027e-08
1.59854e-05
-1.23712e-08
-1.21151e-08
1.59907e-05
1.41505e-05
-4.97016e-09
1.41541e-05
-9.50358e-09
1.41589e-05
-1.30951e-08
1.41646e-05
-1.56678e-08
1.41709e-05
-1.74124e-08
1.41774e-05
-1.85618e-08
1.41841e-05
-1.92737e-08
1.41908e-05
-1.96571e-08
1.41974e-05
-1.9798e-08
1.42039e-05
-1.97622e-08
1.42101e-05
-1.95974e-08
1.42162e-05
-1.93379e-08
1.42221e-05
-1.90093e-08
1.42277e-05
-1.86303e-08
1.42332e-05
-1.82152e-08
1.42383e-05
-1.77745e-08
1.42433e-05
-1.73157e-08
-1.68404e-08
1.4248e-05
1.26068e-05
-6.73082e-09
1.26103e-05
-1.29901e-08
1.2615e-05
-1.78587e-08
1.26205e-05
-2.11684e-08
1.26264e-05
-2.33134e-08
1.26325e-05
-2.46705e-08
1.26387e-05
-2.54491e-08
1.26449e-05
-2.57954e-08
1.26509e-05
-2.58298e-08
1.26568e-05
-2.56421e-08
1.26625e-05
-2.52953e-08
1.2668e-05
-2.48347e-08
1.26732e-05
-2.42937e-08
1.26783e-05
-2.36978e-08
1.26832e-05
-2.3066e-08
1.26878e-05
-2.2413e-08
1.26922e-05
-2.17499e-08
-2.10816e-08
1.26965e-05
1.12314e-05
-8.37736e-09
1.1235e-05
-1.65279e-08
1.12398e-05
-2.26644e-08
1.12452e-05
-2.65359e-08
1.12508e-05
-2.89442e-08
1.12565e-05
-3.04206e-08
1.12623e-05
-3.11963e-08
1.12679e-05
-3.14535e-08
1.12735e-05
-3.13488e-08
1.12788e-05
-3.09917e-08
1.1284e-05
-3.04562e-08
1.12889e-05
-2.97951e-08
1.12937e-05
-2.90476e-08
1.12982e-05
-2.82433e-08
1.13026e-05
-2.74045e-08
1.13067e-05
-2.65487e-08
1.13106e-05
-2.56892e-08
-2.48338e-08
1.13144e-05
1.0006e-05
-9.79663e-09
1.00097e-05
-2.0236e-08
1.00147e-05
-2.76123e-08
1.00199e-05
-3.1796e-08
1.00253e-05
-3.43289e-08
1.00308e-05
-3.58411e-08
1.00361e-05
-3.65432e-08
1.00413e-05
-3.66619e-08
1.00463e-05
-3.63889e-08
1.00512e-05
-3.58471e-08
1.00559e-05
-3.51167e-08
1.00603e-05
-3.42557e-08
1.00646e-05
-3.33068e-08
1.00686e-05
-3.23021e-08
1.00725e-05
-3.12666e-08
1.00762e-05
-3.02213e-08
1.00797e-05
-2.91851e-08
-2.81744e-08
1.0083e-05
8.91408e-06
-1.07816e-08
8.91809e-06
-2.4244e-08
8.92319e-06
-3.27124e-08
8.92829e-06
-3.6894e-08
8.9334e-06
-3.94393e-08
8.93846e-06
-4.09025e-08
8.94337e-06
-4.14555e-08
8.9481e-06
-4.13914e-08
8.95264e-06
-4.09305e-08
8.95699e-06
-4.01983e-08
8.96115e-06
-3.92758e-08
8.96512e-06
-3.82227e-08
8.96889e-06
-3.70829e-08
8.97248e-06
-3.58885e-08
8.97587e-06
-3.46642e-08
8.97908e-06
-3.34306e-08
8.9821e-06
-3.22063e-08
-3.10083e-08
8.98494e-06
7.94098e-06
-1.10965e-08
7.94553e-06
-2.87912e-08
7.95063e-06
-3.7817e-08
7.95543e-06
-4.16888e-08
7.96021e-06
-4.42285e-08
7.96489e-06
-4.55785e-08
7.96935e-06
-4.59145e-08
7.97359e-06
-4.56289e-08
7.97762e-06
-4.49611e-08
7.98145e-06
-4.40311e-08
7.98509e-06
-4.29179e-08
7.98855e-06
-4.16803e-08
7.99183e-06
-4.0361e-08
7.99493e-06
-3.89906e-08
7.99786e-06
-3.7592e-08
8.00061e-06
-3.61864e-08
8.00321e-06
-3.4801e-08
-3.34814e-08
8.00568e-06
7.07293e-06
-9.69454e-09
7.07864e-06
-3.44989e-08
7.08348e-06
-4.26672e-08
7.08775e-06
-4.59547e-08
7.09207e-06
-4.85498e-08
7.09625e-06
-4.97579e-08
7.1002e-06
-4.98626e-08
7.10393e-06
-4.93606e-08
7.10746e-06
-4.84903e-08
7.11079e-06
-4.73641e-08
7.11393e-06
-4.60611e-08
7.1169e-06
-4.4641e-08
7.11968e-06
-4.31457e-08
7.12229e-06
-4.16029e-08
7.12473e-06
-4.00304e-08
7.12698e-06
-3.84389e-08
7.12902e-06
-3.68381e-08
-3.5235e-08
7.13077e-06
6.2971e-06
-4.28409e-09
6.30531e-06
-4.27097e-08
6.31019e-06
-4.75445e-08
6.31426e-06
-5.00272e-08
6.31815e-06
-5.24365e-08
6.3216e-06
-5.3208e-08
6.32468e-06
-5.29425e-08
6.32749e-06
-5.21761e-08
6.33009e-06
-5.10894e-08
6.33249e-06
-4.97683e-08
6.33472e-06
-4.82848e-08
6.33677e-06
-4.66952e-08
6.33867e-06
-4.50392e-08
6.34041e-06
-4.33423e-08
6.34199e-06
-4.16178e-08
6.34342e-06
-3.98673e-08
6.34468e-06
-3.80947e-08
-3.63094e-08
6.34575e-06
5.60107e-06
9.54108e-09
5.61062e-06
-5.22575e-08
5.61466e-06
-5.15833e-08
5.61903e-06
-5.43946e-08
5.62294e-06
-5.63461e-08
5.62585e-06
-5.61209e-08
5.62793e-06
-5.50206e-08
5.62936e-06
-5.36088e-08
5.63027e-06
-5.20019e-08
5.63076e-06
-5.0253e-08
5.63089e-06
-4.84145e-08
5.63072e-06
-4.6528e-08
5.6303e-06
-4.46223e-08
5.62967e-06
-4.27149e-08
5.62887e-06
-4.08099e-08
5.62789e-06
-3.88884e-08
5.62669e-06
-3.68932e-08
-3.45648e-08
5.62494e-06
5.00885e-06
2.99352e-09
5.00514e-06
-4.85452e-08
4.9967e-06
-4.31394e-08
4.99006e-06
-4.77557e-08
4.98327e-06
-4.956e-08
4.97595e-06
-4.87951e-08
4.96804e-06
-4.71152e-08
4.95955e-06
-4.51204e-08
4.95054e-06
-4.29846e-08
4.94108e-06
-4.07976e-08
4.93129e-06
-3.8621e-08
4.92125e-06
-3.6494e-08
4.91107e-06
-3.44393e-08
4.90082e-06
-3.24673e-08
4.89059e-06
-3.05771e-08
4.88045e-06
-2.87483e-08
4.87047e-06
-2.69139e-08
-2.46388e-08
4.86055e-06
4.45954e-06
4.411e-06
4.36786e-06
4.3201e-06
4.27054e-06
4.22175e-06
4.17463e-06
4.12951e-06
4.08653e-06
4.04573e-06
4.00711e-06
3.97062e-06
3.93618e-06
3.90371e-06
3.87313e-06
3.84439e-06
3.81747e-06
3.79283e-06
4.46526e-08
-4.4653e-08
7.86674e-08
-3.39618e-08
9.55432e-08
-1.68462e-08
9.44427e-08
1.11914e-09
7.66348e-08
1.78185e-08
4.48162e-08
3.18306e-08
2.11748e-09
4.2708e-08
-4.84737e-08
5.05996e-08
-1.03947e-07
5.54805e-08
-1.62555e-07
5.8613e-08
-2.23341e-07
6.07924e-08
-2.85685e-07
6.23484e-08
-3.49109e-07
6.34292e-08
-4.1323e-07
6.41262e-08
-4.77746e-07
6.45201e-08
-5.42391e-07
6.46482e-08
-6.06929e-07
6.45405e-08
-6.71155e-07
6.42256e-08
-7.34888e-07
6.37314e-08
-7.97974e-07
6.30842e-08
-8.60286e-07
6.23087e-08
-9.21717e-07
6.14276e-08
-9.82182e-07
6.04618e-08
-1.04161e-06
5.943e-08
-1.09996e-06
5.83489e-08
-1.1572e-06
5.72333e-08
-1.21329e-06
5.60964e-08
-1.26824e-06
5.49497e-08
-1.32204e-06
5.38031e-08
-1.3747e-06
5.26653e-08
-1.42625e-06
5.1544e-08
-1.47669e-06
5.04456e-08
-1.52606e-06
4.93758e-08
-1.5744e-06
4.83395e-08
-1.62174e-06
4.7341e-08
-1.66813e-06
4.63837e-08
-1.7136e-06
4.54707e-08
-1.7582e-06
4.46043e-08
-1.80199e-06
4.37864e-08
-1.84501e-06
4.30186e-08
-1.88731e-06
4.23018e-08
-1.92895e-06
4.16366e-08
-1.96997e-06
4.10234e-08
-2.01044e-06
4.04623e-08
-2.05039e-06
3.99535e-08
-2.08989e-06
3.94965e-08
-2.12898e-06
3.90913e-08
-2.16771e-06
3.87373e-08
-2.20614e-06
3.84341e-08
-2.24432e-06
3.8181e-08
-2.2823e-06
3.79774e-08
-2.32012e-06
3.78222e-08
-2.35784e-06
3.77147e-08
-2.39549e-06
3.76537e-08
-2.43313e-06
3.76382e-08
-2.47081e-06
3.76672e-08
-2.50855e-06
3.77393e-08
-2.54641e-06
3.7853e-08
-2.58442e-06
3.80067e-08
-2.62261e-06
3.81981e-08
-2.66104e-06
3.8425e-08
-2.69972e-06
3.86843e-08
-2.73869e-06
3.89729e-08
-2.77797e-06
3.92871e-08
-2.8176e-06
3.96234e-08
-2.85757e-06
3.99778e-08
-2.89792e-06
4.03461e-08
-2.93865e-06
4.07233e-08
-2.97975e-06
4.11042e-08
-3.02124e-06
4.14824e-08
-3.06309e-06
4.18513e-08
-3.10529e-06
4.22034e-08
-3.14782e-06
4.25303e-08
-3.19065e-06
4.2823e-08
-3.23372e-06
4.30717e-08
-3.27698e-06
4.32654e-08
-3.32038e-06
4.33926e-08
-3.36382e-06
4.34408e-08
-3.40722e-06
4.33972e-08
-3.45047e-06
4.32474e-08
-3.49344e-06
4.29766e-08
-3.53601e-06
4.25686e-08
-3.57802e-06
4.20063e-08
-3.61929e-06
4.12717e-08
-3.65964e-06
4.03459e-08
-3.69884e-06
3.92086e-08
-3.73668e-06
3.78383e-08
-3.77289e-06
3.62126e-08
-3.8072e-06
3.43087e-08
-3.83931e-06
3.2104e-08
-3.86888e-06
2.95755e-08
-3.89558e-06
2.66985e-08
-3.91903e-06
2.34452e-08
-3.93882e-06
1.97838e-08
-3.9545e-06
1.56815e-08
-3.96562e-06
1.11101e-08
-3.97165e-06
6.03355e-09
-3.97207e-06
4.1015e-10
-3.96636e-06
-5.7155e-09
-3.95405e-06
-1.23125e-08
-3.93463e-06
-1.94249e-08
-3.90756e-06
-2.70629e-08
-3.87234e-06
-3.52246e-08
-3.82843e-06
-4.38983e-08
-3.77537e-06
-5.30625e-08
-3.71268e-06
-6.26837e-08
-3.63996e-06
-7.27143e-08
-3.55686e-06
-8.30918e-08
-3.46312e-06
-9.3738e-08
-3.35856e-06
-1.04557e-07
-3.24312e-06
-1.15437e-07
-3.11687e-06
-1.26246e-07
-2.98003e-06
-1.36841e-07
-2.83297e-06
-1.47062e-07
-2.67623e-06
-1.56744e-07
-2.51052e-06
-1.65716e-07
-2.33671e-06
-1.73815e-07
-2.15584e-06
-1.80883e-07
-1.96907e-06
-1.86782e-07
-1.77767e-06
-1.91401e-07
-1.58301e-06
-1.94655e-07
-1.38649e-06
-1.96514e-07
-1.1895e-06
-1.96985e-07
-9.93413e-07
-1.9609e-07
-7.99383e-07
-1.94026e-07
-6.08335e-07
-1.91046e-07
-4.21471e-07
-1.86865e-07
-2.38565e-07
-1.82903e-07
-5.95136e-08
-1.79059e-07
1.12343e-07
-1.71848e-07
2.74761e-07
-1.6243e-07
4.27297e-07
-1.52531e-07
5.70006e-07
-1.42707e-07
7.03144e-07
-1.33147e-07
8.27073e-07
-1.23932e-07
9.42201e-07
-1.15125e-07
1.04896e-06
-1.06761e-07
1.14781e-06
-9.88553e-08
1.23922e-06
-9.14192e-08
1.3237e-06
-8.44608e-08
1.4017e-06
-7.79839e-08
1.47371e-06
-7.1981e-08
1.54015e-06
-6.64314e-08
1.60145e-06
-6.13093e-08
1.65803e-06
-5.65895e-08
1.71027e-06
-5.22468e-08
1.75852e-06
-4.82582e-08
1.80312e-06
-4.46029e-08
1.84437e-06
-4.12584e-08
1.88257e-06
-3.82e-08
1.91797e-06
-3.54054e-08
1.95083e-06
-3.28551e-08
1.98135e-06
-3.05292e-08
2.00976e-06
-2.84083e-08
2.03624e-06
-2.64764e-08
2.06097e-06
-2.47201e-08
2.0841e-06
-2.31238e-08
2.10578e-06
-2.16742e-08
2.12614e-06
-2.03619e-08
2.14531e-06
-1.91704e-08
2.1634e-06
-1.80869e-08
2.18051e-06
-1.71098e-08
2.19674e-06
-1.62236e-08
2.21214e-06
-1.54077e-08
2.22681e-06
-1.46599e-08
2.24078e-06
-1.39714e-08
2.2541e-06
-1.33162e-08
2.26678e-06
-1.26733e-08
2.27881e-06
-1.20238e-08
2.29014e-06
-1.13306e-08
2.3007e-06
-1.05524e-08
2.31031e-06
-9.61127e-09
2.31873e-06
-8.41166e-09
2.32552e-06
-6.79128e-09
2.32997e-06
-4.45376e-09
2.33092e-06
-9.42456e-10
2.32607e-06
4.83718e-09
2.31001e-06
1.60575e-08
2.26937e-06
4.06474e-08
1.14782e-07
2.15459e-06
1.25068e-08
-5.72085e-08
5.71759e-09
-2.7211e-08
-1.34778e-08
2.328e-09
-4.05196e-08
2.81478e-08
-7.29418e-08
5.02304e-08
-1.09897e-07
6.87792e-08
-1.51019e-07
8.38242e-08
-1.95863e-07
9.5441e-08
-2.44399e-07
1.04015e-07
-2.96125e-07
1.10337e-07
-3.50348e-07
1.15013e-07
-4.06456e-07
1.18453e-07
-4.63951e-07
1.20919e-07
-5.22423e-07
1.22592e-07
-5.81511e-07
1.23601e-07
-6.40912e-07
1.24043e-07
-7.00373e-07
1.23994e-07
-7.59676e-07
1.23522e-07
-8.18636e-07
1.22687e-07
-8.77098e-07
1.21543e-07
-9.3493e-07
1.2014e-07
-9.92022e-07
1.18522e-07
-1.04829e-06
1.1673e-07
-1.10365e-06
1.14801e-07
-1.15806e-06
1.12766e-07
-1.21148e-06
1.10656e-07
-1.26387e-06
1.08496e-07
-1.31522e-06
1.06309e-07
-1.36553e-06
1.04115e-07
-1.4148e-06
1.01932e-07
-1.46303e-06
9.97743e-08
-1.51024e-06
9.76564e-08
-1.55646e-06
9.55894e-08
-1.6017e-06
9.35833e-08
-1.64601e-06
9.16463e-08
-1.68941e-06
8.97856e-08
-1.73195e-06
8.80069e-08
-1.77366e-06
8.63149e-08
-1.81459e-06
8.47135e-08
-1.85477e-06
8.32055e-08
-1.89426e-06
8.17932e-08
-1.93311e-06
8.04784e-08
-1.97135e-06
7.92622e-08
-2.00904e-06
7.81454e-08
-2.04621e-06
7.71284e-08
-2.08293e-06
7.62114e-08
-2.11924e-06
7.53939e-08
-2.15518e-06
7.46755e-08
-2.1908e-06
7.40552e-08
-2.22615e-06
7.35319e-08
-2.26127e-06
7.31042e-08
-2.29622e-06
7.27704e-08
-2.33104e-06
7.2529e-08
-2.36576e-06
7.2378e-08
-2.40044e-06
7.23157e-08
-2.43511e-06
7.23397e-08
-2.46982e-06
7.24475e-08
-2.5046e-06
7.26362e-08
-2.53949e-06
7.29024e-08
-2.57453e-06
7.32421e-08
-2.60975e-06
7.36507e-08
-2.64519e-06
7.41227e-08
-2.68087e-06
7.46523e-08
-2.71682e-06
7.52328e-08
-2.75305e-06
7.58569e-08
-2.7896e-06
7.65169e-08
-2.82646e-06
7.72035e-08
-2.86364e-06
7.79067e-08
-2.90115e-06
7.86149e-08
-2.93899e-06
7.93153e-08
-2.97713e-06
7.99936e-08
-3.01556e-06
8.06341e-08
-3.05425e-06
8.12198e-08
-3.09316e-06
8.17317e-08
-3.13223e-06
8.21496e-08
-3.17142e-06
8.24512e-08
-3.21064e-06
8.26127e-08
-3.24981e-06
8.26084e-08
-3.28883e-06
8.24109e-08
-3.32757e-06
8.19908e-08
-3.36591e-06
8.13167e-08
-3.4037e-06
8.03555e-08
-3.44077e-06
7.90723e-08
-3.47693e-06
7.74305e-08
-3.51198e-06
7.53916e-08
-3.54569e-06
7.29155e-08
-3.57782e-06
6.99607e-08
-3.6081e-06
6.64841e-08
-3.63624e-06
6.24417e-08
-3.66193e-06
5.77881e-08
-3.68483e-06
5.24778e-08
-3.7046e-06
4.64634e-08
-3.72085e-06
3.9694e-08
-3.73317e-06
3.21137e-08
-3.74115e-06
2.36624e-08
-3.74432e-06
1.42815e-08
-3.74217e-06
3.89579e-09
-3.73428e-06
-7.47811e-09
-3.72019e-06
-1.97942e-08
-3.69941e-06
-3.30943e-08
-3.67142e-06
-4.74093e-08
-3.63573e-06
-6.27452e-08
-3.59187e-06
-7.90907e-08
-3.53936e-06
-9.64165e-08
-3.47775e-06
-1.14673e-07
-3.40665e-06
-1.33788e-07
-3.32572e-06
-1.5366e-07
-3.23466e-06
-1.7416e-07
-3.13328e-06
-1.95126e-07
-3.02148e-06
-2.16364e-07
-2.89927e-06
-2.37644e-07
-2.76682e-06
-2.58708e-07
-2.6244e-06
-2.79266e-07
-2.47246e-06
-2.99004e-07
-2.3116e-06
-3.17599e-07
-2.1426e-06
-3.34722e-07
-1.96635e-06
-3.50057e-07
-1.78391e-06
-3.63315e-07
-1.59645e-06
-3.74247e-07
-1.40521e-06
-3.82652e-07
-1.21149e-06
-3.88389e-07
-1.0166e-06
-3.91415e-07
-8.21821e-07
-3.91768e-07
-6.28392e-07
-3.89529e-07
-4.37372e-07
-3.85057e-07
-2.49629e-07
-3.78795e-07
-6.54417e-08
-3.71063e-07
1.12723e-07
-3.61068e-07
2.82136e-07
-3.48486e-07
4.42915e-07
-3.32624e-07
5.94876e-07
-3.14396e-07
7.3819e-07
-2.95847e-07
8.72902e-07
-2.77409e-07
9.99129e-07
-2.59361e-07
1.11708e-06
-2.41878e-07
1.22705e-06
-2.25082e-07
1.32937e-06
-2.09069e-07
1.42443e-06
-1.93901e-07
1.51263e-06
-1.79616e-07
1.59438e-06
-1.66228e-07
1.6701e-06
-1.53736e-07
1.74022e-06
-1.42124e-07
1.80515e-06
-1.31366e-07
1.86528e-06
-1.21428e-07
1.92097e-06
-1.12269e-07
1.97258e-06
-1.03843e-07
2.02044e-06
-9.61043e-08
2.06486e-06
-8.90087e-08
2.10612e-06
-8.25115e-08
2.1445e-06
-7.65684e-08
2.18023e-06
-7.11366e-08
2.21355e-06
-6.61754e-08
2.24467e-06
-6.16476e-08
2.27378e-06
-5.75195e-08
2.30106e-06
-5.37592e-08
2.32667e-06
-5.03367e-08
2.35077e-06
-4.72254e-08
2.3735e-06
-4.43996e-08
2.39498e-06
-4.18362e-08
2.41532e-06
-3.95123e-08
2.43463e-06
-3.74029e-08
2.45301e-06
-3.5489e-08
2.47055e-06
-3.37522e-08
2.48731e-06
-3.21664e-08
2.50336e-06
-3.07076e-08
2.51874e-06
-2.93523e-08
2.5335e-06
-2.80683e-08
2.54765e-06
-2.68157e-08
2.56119e-06
-2.55472e-08
2.57406e-06
-2.4199e-08
2.5862e-06
-2.26841e-08
2.59745e-06
-2.0869e-08
2.60759e-06
-1.85535e-08
2.61622e-06
-1.54266e-08
2.62272e-06
-1.09537e-08
2.62596e-06
-4.18909e-09
2.62401e-06
6.79296e-09
2.61341e-06
2.66546e-08
2.58789e-06
6.61674e-08
1.5425e-07
2.54842e-06
-2.11312e-08
-3.6046e-08
-5.27854e-08
4.4529e-09
-8.73292e-08
3.68774e-08
-1.23014e-07
6.38354e-08
-1.59944e-07
8.71608e-08
-1.9841e-07
1.07247e-07
-2.38731e-07
1.24147e-07
-2.81231e-07
1.37943e-07
-3.26112e-07
1.48896e-07
-3.73213e-07
1.57441e-07
-4.22206e-07
1.64007e-07
-4.72707e-07
1.68956e-07
-5.24357e-07
1.72571e-07
-5.76833e-07
1.75069e-07
-6.2985e-07
1.76618e-07
-6.83162e-07
1.77355e-07
-7.36558e-07
1.7739e-07
-7.89858e-07
1.7682e-07
-8.42905e-07
1.75732e-07
-8.95565e-07
1.74201e-07
-9.47724e-07
1.72297e-07
-9.99285e-07
1.70082e-07
-1.05017e-06
1.67612e-07
-1.10031e-06
1.6494e-07
-1.14965e-06
1.62109e-07
-1.19815e-06
1.59162e-07
-1.24579e-06
1.56135e-07
-1.29254e-06
1.53061e-07
-1.33839e-06
1.49967e-07
-1.38334e-06
1.4688e-07
-1.42738e-06
1.43821e-07
-1.47054e-06
1.40811e-07
-1.51281e-06
1.37866e-07
-1.55423e-06
1.35001e-07
-1.59481e-06
1.32227e-07
-1.63458e-06
1.29556e-07
-1.67357e-06
1.26997e-07
-1.71181e-06
1.24556e-07
-1.74934e-06
1.2224e-07
-1.78619e-06
1.20054e-07
-1.8224e-06
1.18001e-07
-1.85801e-06
1.16084e-07
-1.89305e-06
1.14305e-07
-1.92757e-06
1.12667e-07
-1.96161e-06
1.11169e-07
-1.99521e-06
1.09812e-07
-2.02841e-06
1.08596e-07
-2.06125e-06
1.0752e-07
-2.09378e-06
1.06584e-07
-2.12603e-06
1.05786e-07
-2.15805e-06
1.05124e-07
-2.18988e-06
1.04597e-07
-2.22156e-06
1.04203e-07
-2.25312e-06
1.0394e-07
-2.28462e-06
1.03805e-07
-2.31607e-06
1.03794e-07
-2.34753e-06
1.03905e-07
-2.37903e-06
1.04134e-07
-2.4106e-06
1.04474e-07
-2.44228e-06
1.04922e-07
-2.47409e-06
1.0547e-07
-2.50608e-06
1.06111e-07
-2.53826e-06
1.06836e-07
-2.57067e-06
1.07637e-07
-2.60332e-06
1.08503e-07
-2.63622e-06
1.09422e-07
-2.6694e-06
1.10381e-07
-2.70286e-06
1.11365e-07
-2.7366e-06
1.12357e-07
-2.77062e-06
1.13338e-07
-2.80492e-06
1.14286e-07
-2.83946e-06
1.15178e-07
-2.87423e-06
1.15989e-07
-2.90919e-06
1.1669e-07
-2.94429e-06
1.1725e-07
-2.97948e-06
1.17637e-07
-3.01468e-06
1.17814e-07
-3.04981e-06
1.17743e-07
-3.08479e-06
1.17381e-07
-3.11948e-06
1.16684e-07
-3.15377e-06
1.15605e-07
-3.18751e-06
1.14093e-07
-3.22053e-06
1.12096e-07
-3.25266e-06
1.09557e-07
-3.28368e-06
1.06418e-07
-3.31339e-06
1.0262e-07
-3.34153e-06
9.8099e-08
-3.36784e-06
9.27912e-08
-3.39202e-06
8.663e-08
-3.41378e-06
7.95476e-08
-3.43278e-06
7.14753e-08
-3.44866e-06
6.23431e-08
-3.46105e-06
5.20782e-08
-3.46954e-06
4.06026e-08
-3.47371e-06
2.78354e-08
-3.47313e-06
1.36971e-08
-3.46736e-06
-1.87507e-09
-3.45596e-06
-1.88801e-08
-3.43844e-06
-3.73171e-08
-3.41431e-06
-5.7229e-08
-3.38307e-06
-7.8643e-08
-3.34425e-06
-1.01562e-07
-3.29738e-06
-1.25965e-07
-3.24199e-06
-1.51804e-07
-3.17766e-06
-1.79e-07
-3.104e-06
-2.07437e-07
-3.0207e-06
-2.36962e-07
-2.92749e-06
-2.67372e-07
-2.82419e-06
-2.98418e-07
-2.71076e-06
-3.298e-07
-2.58723e-06
-3.6117e-07
-2.45381e-06
-3.92131e-07
-2.31083e-06
-4.22247e-07
-2.15879e-06
-4.51046e-07
-1.99835e-06
-4.78045e-07
-1.83032e-06
-5.02758e-07
-1.65565e-06
-5.24726e-07
-1.47544e-06
-5.43532e-07
-1.29085e-06
-5.58832e-07
-1.10314e-06
-5.70364e-07
-9.13574e-07
-5.7795e-07
-7.2342e-07
-5.8157e-07
-5.33885e-07
-5.81302e-07
-3.4611e-07
-5.77303e-07
-1.60994e-07
-5.70173e-07
2.01436e-08
-5.59931e-07
1.95141e-07
-5.46062e-07
3.62656e-07
-5.28581e-07
5.22097e-07
-5.07929e-07
6.7368e-07
-4.84206e-07
8.17605e-07
-4.58321e-07
9.53571e-07
-4.31814e-07
1.0815e-06
-4.05336e-07
1.20144e-06
-3.79306e-07
1.31358e-06
-3.54013e-07
1.41816e-06
-3.29666e-07
1.51551e-06
-3.06418e-07
1.60599e-06
-2.84375e-07
1.68998e-06
-2.63601e-07
1.76788e-06
-2.44127e-07
1.8401e-06
-2.25952e-07
1.90703e-06
-2.09055e-07
1.96906e-06
-1.93399e-07
2.02656e-06
-1.78932e-07
2.07989e-06
-1.65597e-07
2.12937e-06
-1.53329e-07
2.17533e-06
-1.42062e-07
2.21805e-06
-1.31728e-07
2.2578e-06
-1.22264e-07
2.29484e-06
-1.13605e-07
2.32939e-06
-1.05692e-07
2.36168e-06
-9.84643e-08
2.39191e-06
-9.18679e-08
2.42024e-06
-8.58543e-08
2.44686e-06
-8.03773e-08
2.47192e-06
-7.53927e-08
2.49556e-06
-7.08606e-08
2.5179e-06
-6.67433e-08
2.53907e-06
-6.30069e-08
2.55918e-06
-5.96199e-08
2.57833e-06
-5.65478e-08
2.5966e-06
-5.37588e-08
2.61407e-06
-5.12245e-08
2.63082e-06
-4.89123e-08
2.64689e-06
-4.67857e-08
2.66235e-06
-4.48065e-08
2.67721e-06
-4.2931e-08
2.69151e-06
-4.11039e-08
2.70522e-06
-3.92551e-08
2.71831e-06
-3.72915e-08
2.73071e-06
-3.5086e-08
2.7423e-06
-3.24541e-08
2.75286e-06
-2.91137e-08
2.76206e-06
-2.46313e-08
2.76939e-06
-1.82872e-08
2.77402e-06
-8.81854e-09
2.77469e-06
6.12172e-09
2.7698e-06
3.15473e-08
2.75835e-06
7.76209e-08
1.64261e-07
2.74834e-06
-4.19192e-08
5.86577e-09
-8.51911e-08
4.7724e-08
-1.26767e-07
7.8454e-08
-1.67299e-07
1.04367e-07
-2.07307e-07
1.2717e-07
-2.47288e-07
1.47228e-07
-2.87713e-07
1.64572e-07
-3.28992e-07
1.79221e-07
-3.71394e-07
1.91298e-07
-4.14991e-07
2.01038e-07
-4.59708e-07
2.08722e-07
-5.05382e-07
2.14629e-07
-5.51818e-07
2.19007e-07
-5.98819e-07
2.22069e-07
-6.46195e-07
2.23994e-07
-6.93774e-07
2.24933e-07
-7.41402e-07
2.25017e-07
-7.88942e-07
2.2436e-07
-8.36273e-07
2.23063e-07
-8.83291e-07
2.21219e-07
-9.29903e-07
2.18909e-07
-9.76028e-07
2.16208e-07
-1.0216e-06
2.13185e-07
-1.06656e-06
2.09901e-07
-1.11086e-06
2.06412e-07
-1.15447e-06
2.02769e-07
-1.19735e-06
1.99015e-07
-1.23948e-06
1.95192e-07
-1.28085e-06
1.91336e-07
-1.32145e-06
1.87478e-07
-1.36127e-06
1.83647e-07
-1.40033e-06
1.79867e-07
-1.43862e-06
1.76161e-07
-1.47617e-06
1.72546e-07
-1.51298e-06
1.69038e-07
-1.54907e-06
1.65653e-07
-1.58448e-06
1.62401e-07
-1.61921e-06
1.59293e-07
-1.65331e-06
1.56336e-07
-1.68679e-06
1.53537e-07
-1.7197e-06
1.50902e-07
-1.75205e-06
1.48435e-07
-1.78388e-06
1.4614e-07
-1.81523e-06
1.44017e-07
-1.84614e-06
1.4207e-07
-1.87662e-06
1.40299e-07
-1.90673e-06
1.38705e-07
-1.9365e-06
1.37286e-07
-1.96595e-06
1.36043e-07
-1.99514e-06
1.34973e-07
-2.0241e-06
1.34077e-07
-2.05285e-06
1.33351e-07
-2.08144e-06
1.32793e-07
-2.1099e-06
1.32402e-07
-2.13827e-06
1.32175e-07
-2.16659e-06
1.32107e-07
-2.19487e-06
1.32195e-07
-2.22317e-06
1.32434e-07
-2.25152e-06
1.32818e-07
-2.27993e-06
1.3334e-07
-2.30846e-06
1.33992e-07
-2.33711e-06
1.34766e-07
-2.36593e-06
1.35652e-07
-2.39493e-06
1.36637e-07
-2.42414e-06
1.3771e-07
-2.45357e-06
1.38854e-07
-2.48324e-06
1.40053e-07
-2.51316e-06
1.41287e-07
-2.54334e-06
1.42535e-07
-2.57377e-06
1.43772e-07
-2.60446e-06
1.4497e-07
-2.63538e-06
1.46098e-07
-2.66652e-06
1.47124e-07
-2.69784e-06
1.48011e-07
-2.72931e-06
1.48717e-07
-2.76087e-06
1.49199e-07
-2.79246e-06
1.49409e-07
-2.82401e-06
1.49295e-07
-2.85543e-06
1.48801e-07
-2.88662e-06
1.47869e-07
-2.91745e-06
1.46434e-07
-2.94779e-06
1.4443e-07
-2.97748e-06
1.41784e-07
-3.00634e-06
1.38422e-07
-3.0342e-06
1.34267e-07
-3.06081e-06
1.29237e-07
-3.08596e-06
1.23248e-07
-3.10939e-06
1.16213e-07
-3.1308e-06
1.08043e-07
-3.1499e-06
9.86468e-08
-3.16635e-06
8.79318e-08
-3.17981e-06
7.58052e-08
-3.18991e-06
6.21721e-08
-3.19624e-06
4.69337e-08
-3.19839e-06
2.99907e-08
-3.19594e-06
1.12438e-08
-3.18845e-06
-9.36429e-09
-3.17548e-06
-3.1853e-08
-3.15653e-06
-5.62632e-08
-3.13112e-06
-8.26383e-08
-3.09876e-06
-1.11005e-07
-3.05896e-06
-1.41363e-07
-3.01125e-06
-1.73684e-07
-2.95515e-06
-2.07899e-07
-2.89025e-06
-2.43903e-07
-2.81615e-06
-2.81539e-07
-2.73252e-06
-3.20595e-07
-2.63909e-06
-3.60797e-07
-2.53571e-06
-4.01803e-07
-2.42231e-06
-4.43204e-07
-2.29895e-06
-4.84524e-07
-2.16586e-06
-5.25225e-07
-2.02339e-06
-5.64712e-07
-1.87209e-06
-6.02345e-07