/*--------------------------------*- C++ -*----------------------------------*\
| =========                 |                                                 |
| \\      /  F ield         | OpenFOAM: The Open Source CFD Toolbox           |
|  \\    /   O peration     | Version:  2.2.x                                 |
|   \\  /    A nd           | Web:      www.OpenFOAM.org                      |
|    \\/     M anipulation  |                                                 |
\*---------------------------------------------------------------------------*/
FoamFile
{
    version     2.0;
    format      ascii;
    class       volVectorField;
    location    "300";
    object      U;
}
// * * * * * * * * * * * * * * * * * * * * * * * * * * * * * * * * * * * * * //

dimensions      [0 1 -1 0 0 0 0];

internalField   nonuniform List<vector> 
12225
(
(9.83971 -1.23842 0)
(9.73868 -0.731485 0)
(9.53686 -0.467326 0)
(9.32297 -0.307394 0)
(9.12404 -0.205941 0)
(8.94029 -0.139574 0)
(8.77 -0.0949229 0)
(8.61239 -0.0642267 0)
(8.4667 -0.0427828 0)
(8.33199 -0.0276151 0)
(8.20733 -0.0167819 0)
(8.09187 -0.00898879 0)
(7.98484 -0.003356 0)
(7.88554 0.000729062 0)
(7.79327 0.00372375 0)
(7.70717 0.00615474 0)
(7.6214 0.00957769 0)
(7.55661 -0.0195002 0)
(10.0334 0.447397 0)
(10.0225 0.426948 0)
(9.98822 0.34026 0)
(9.94272 0.271013 0)
(9.89623 0.217848 0)
(9.84802 0.177272 0)
(9.79738 0.146732 0)
(9.74501 0.123761 0)
(9.69179 0.106334 0)
(9.63838 0.0929624 0)
(9.58528 0.0825738 0)
(9.5329 0.0743961 0)
(9.48157 0.0678709 0)
(9.43153 0.0626035 0)
(9.38295 0.0583587 0)
(9.33604 0.0552542 0)
(9.29234 0.0544418 0)
(9.25758 0.0682125 0)
(9.99289 0.0267917 0)
(10.0022 -0.00873989 0)
(10.0177 -0.0275343 0)
(10.0245 -0.0223823 0)
(10.0275 -0.0109997 0)
(10.0277 0.000340037 0)
(10.0248 0.0104464 0)
(10.0195 0.0190125 0)
(10.0124 0.0260062 0)
(10.0039 0.0315714 0)
(9.99448 0.0359193 0)
(9.98425 0.0392604 0)
(9.97349 0.0417824 0)
(9.96237 0.0436555 0)
(9.9511 0.0450635 0)
(9.94005 0.0462766 0)
(9.93035 0.0473959 0)
(9.92229 0.045197 0)
(9.99997 0.019695 0)
(10.0123 0.0433953 0)
(10.0307 0.0557394 0)
(10.0409 0.0653684 0)
(10.048 0.0707637 0)
(10.0539 0.072528 0)
(10.0585 0.0723417 0)
(10.062 0.0712362 0)
(10.0647 0.0697033 0)
(10.0669 0.0679987 0)
(10.0686 0.0662633 0)
(10.0699 0.0645672 0)
(10.0709 0.0629386 0)
(10.0716 0.0613872 0)
(10.0723 0.0599199 0)
(10.0732 0.0585213 0)
(10.0749 0.0568877 0)
(10.0774 0.0533249 0)
(10.0023 0.0186992 0)
(10.0143 0.0408555 0)
(10.03 0.0468946 0)
(10.0402 0.0493059 0)
(10.0481 0.050744 0)
(10.0556 0.0513123 0)
(10.0623 0.0515287 0)
(10.0682 0.0516908 0)
(10.0736 0.0518405 0)
(10.0785 0.0519519 0)
(10.0831 0.0519994 0)
(10.0873 0.0519626 0)
(10.0914 0.0518234 0)
(10.0952 0.0515634 0)
(10.099 0.0511533 0)
(10.1029 0.0505018 0)
(10.1071 0.04928 0)
(10.1113 0.0465048 0)
(10.0025 0.01895 0)
(10.0131 0.0370568 0)
(10.0268 0.0433095 0)
(10.0371 0.0466623 0)
(10.0455 0.049417 0)
(10.0534 0.0512673 0)
(10.0607 0.0524077 0)
(10.0673 0.0531128 0)
(10.0733 0.0535078 0)
(10.079 0.0536507 0)
(10.0844 0.053583 0)
(10.0895 0.0533337 0)
(10.0944 0.0529171 0)
(10.0992 0.05233 0)
(10.1039 0.0515397 0)
(10.1085 0.0504473 0)
(10.1132 0.0488132 0)
(10.1178 0.0461974 0)
(10.0021 0.016659 0)
(10.011 0.0318021 0)
(10.0231 0.0388213 0)
(10.0332 0.0428386 0)
(10.0417 0.0458265 0)
(10.0497 0.0477766 0)
(10.0571 0.0489253 0)
(10.0639 0.0495819 0)
(10.0702 0.0499151 0)
(10.0762 0.0500052 0)
(10.0819 0.0498989 0)
(10.0873 0.0496222 0)
(10.0926 0.0491826 0)
(10.0977 0.0485672 0)
(10.1026 0.0477352 0)
(10.1074 0.0465985 0)
(10.1121 0.0450022 0)
(10.1165 0.042764 0)
(10.0019 0.0147139 0)
(10.0095 0.0281628 0)
(10.0201 0.0354934 0)
(10.0297 0.0397896 0)
(10.0381 0.0428427 0)
(10.046 0.0448778 0)
(10.0533 0.0461322 0)
(10.0602 0.046883 0)
(10.0666 0.0472924 0)
(10.0727 0.0474409 0)
(10.0785 0.0473748 0)
(10.0841 0.0471197 0)
(10.0894 0.0466834 0)
(10.0946 0.0460546 0)
(10.0995 0.0451999 0)
(10.1043 0.0440565 0)
(10.1088 0.0425363 0)
(10.1131 0.0405875 0)
(10.0017 0.0131354 0)
(10.0082 0.0252153 0)
(10.0177 0.0324509 0)
(10.0266 0.0368527 0)
(10.0348 0.0399446 0)
(10.0425 0.0420424 0)
(10.0498 0.0433747 0)
(10.0566 0.0441894 0)
(10.0631 0.0446425 0)
(10.0692 0.0448179 0)
(10.075 0.0447646 0)
(10.0806 0.0445109 0)
(10.086 0.0440672 0)
(10.0912 0.0434269 0)
(10.0961 0.042566 0)
(10.1008 0.041444 0)
(10.1052 0.0400153 0)
(10.1094 0.0382919 0)
(10.0015 0.0115873 0)
(10.007 0.0222756 0)
(10.0153 0.0292034 0)
(10.0236 0.0336126 0)
(10.0313 0.0367076 0)
(10.0388 0.03884 0)
(10.0459 0.0402289 0)
(10.0526 0.0410938 0)
(10.059 0.0415833 0)
(10.0651 0.041783 0)
(10.0709 0.0417444 0)
(10.0765 0.0414983 0)
(10.0819 0.0410584 0)
(10.087 0.0404244 0)
(10.0919 0.0395841 0)
(10.0965 0.0385182 0)
(10.1008 0.0372137 0)
(10.1049 0.0357168 0)
(10.0013 0.0100458 0)
(10.006 0.019342 0)
(10.0131 0.0258002 0)
(10.0206 0.030099 0)
(10.0279 0.0331293 0)
(10.0349 0.0352441 0)
(10.0418 0.0366505 0)
(10.0483 0.0375396 0)
(10.0546 0.0380492 0)
(10.0606 0.0382637 0)
(10.0664 0.0382361 0)
(10.0719 0.0379991 0)
(10.0771 0.0375706 0)
(10.0822 0.0369574 0)
(10.087 0.0361593 0)
(10.0915 0.0351751 0)
(10.0957 0.0340139 0)
(10.0997 0.0327342 0)
(10.0011 0.00852329 0)
(10.005 0.0164521 0)
(10.0111 0.0222885 0)
(10.0178 0.026342 0)
(10.0245 0.0292264 0)
(10.0312 0.0312619 0)
(10.0377 0.0326388 0)
(10.044 0.0335197 0)
(10.05 0.0340277 0)
(10.0559 0.0342438 0)
(10.0615 0.0342207 0)
(10.0669 0.033993 0)
(10.072 0.033583 0)
(10.077 0.0330045 0)
(10.0816 0.0322675 0)
(10.086 0.0313839 0)
(10.0901 0.0303752 0)
(10.094 0.0292995 0)
(10.0009 0.00703498 0)
(10.0042 0.0136244 0)
(10.0093 0.0187025 0)
(10.0153 0.0223692 0)
(10.0214 0.0250138 0)
(10.0276 0.0268985 0)
(10.0337 0.0281894 0)
(10.0397 0.0290212 0)
(10.0456 0.0294998 0)
(10.0512 0.0296996 0)
(10.0566 0.0296716 0)
(10.0618 0.0294515 0)
(10.0668 0.0290648 0)
(10.0716 0.028531 0)
(10.0761 0.0278674 0)
(10.0804 0.0270932 0)
(10.0843 0.0262346 0)
(10.0881 0.0253429 0)
(10.0008 0.00558676 0)
(10.0035 0.010859 0)
(10.0079 0.015066 0)
(10.0131 0.0182062 0)
(10.0187 0.0205054 0)
(10.0244 0.0221567 0)
(10.0301 0.0232951 0)
(10.0358 0.0240283 0)
(10.0413 0.0244431 0)
(10.0467 0.0246044 0)
(10.052 0.0245593 0)
(10.057 0.0243424 0)
(10.0618 0.0239809 0)
(10.0664 0.0234971 0)
(10.0707 0.0229118 0)
(10.0748 0.0222469 0)
(10.0787 0.0215278 0)
(10.0824 0.0207967 0)
(10.0006 0.00417342 0)
(10.0029 0.00813922 0)
(10.0067 0.0113827 0)
(10.0113 0.0138656 0)
(10.0163 0.015706 0)
(10.0216 0.0170314 0)
(10.0269 0.0179416 0)
(10.0323 0.0185176 0)
(10.0375 0.0188264 0)
(10.0427 0.0189205 0)
(10.0477 0.01884 0)
(10.0525 0.0186165 0)
(10.0571 0.0182756 0)
(10.0615 0.0178394 0)
(10.0657 0.0173287 0)
(10.0697 0.0167638 0)
(10.0735 0.0161668 0)
(10.0771 0.0155708 0)
(10.0005 0.00277613 0)
(10.0025 0.0054265 0)
(10.0058 0.00762413 0)
(10.0099 0.00932833 0)
(10.0145 0.0105935 0)
(10.0193 0.0114935 0)
(10.0243 0.0120926 0)
(10.0293 0.0124454 0)
(10.0343 0.012598 0)
(10.0393 0.0125885 0)
(10.044 0.0124474 0)
(10.0487 0.0121999 0)
(10.0531 0.0118672 0)
(10.0574 0.0114681 0)
(10.0615 0.01102 0)
(10.0653 0.0105397 0)
(10.069 0.0100441 0)
(10.0726 0.00955817 0)
(10.0005 0.00136033 0)
(10.0022 0.00265624 0)
(10.0052 0.00372236 0)
(10.0089 0.00453268 0)
(10.0131 0.00510734 0)
(10.0177 0.0054794 0)
(10.0224 0.00568032 0)
(10.0272 0.00573825 0)
(10.032 0.0056781 0)
(10.0367 0.00552136 0)
(10.0413 0.00528629 0)
(10.0457 0.00498859 0)
(10.0501 0.00464217 0)
(10.0542 0.00425969 0)
(10.0582 0.00385294 0)
(10.062 0.00343306 0)
(10.0656 0.00301111 0)
(10.0691 0.00260518 0)
(10.0005 -4.02374e-05 0)
(10.0021 -9.76084e-05 0)
(10.0049 -0.000191741 0)
(10.0085 -0.000325719 0)
(10.0125 -0.000497941 0)
(10.0169 -0.000707558 0)
(10.0215 -0.000953204 0)
(10.0261 -0.0012319 0)
(10.0308 -0.00153982 0)
(10.0354 -0.00187271 0)
(10.0399 -0.00222612 0)
(10.0443 -0.00259531 0)
(10.0485 -0.00297532 0)
(10.0526 -0.00336106 0)
(10.0565 -0.00374733 0)
(10.0602 -0.00412888 0)
(10.0638 -0.00450005 0)
(10.0673 -0.00484875 0)
(10.0005 -0.00134094 0)
(10.0021 -0.00266493 0)
(10.0049 -0.00385359 0)
(10.0085 -0.00487878 0)
(10.0127 -0.005754 0)
(10.0171 -0.00651088 0)
(10.0216 -0.00717722 0)
(10.0263 -0.00777371 0)
(10.0309 -0.00831641 0)
(10.0355 -0.00881787 0)
(10.04 -0.00928713 0)
(10.0443 -0.00973027 0)
(10.0486 -0.0101512 0)
(10.0526 -0.0105522 0)
(10.0565 -0.0109344 0)
(10.0602 -0.011298 0)
(10.0638 -0.0116422 0)
(10.0673 -0.0119597 0)
(10.0005 -0.00253976 0)
(10.0023 -0.00504592 0)
(10.0052 -0.00724694 0)
(10.0091 -0.00906954 0)
(10.0134 -0.0105552 0)
(10.0179 -0.0117791 0)
(10.0226 -0.012799 0)
(10.0274 -0.0136575 0)
(10.0321 -0.0143899 0)
(10.0367 -0.0150244 0)
(10.0412 -0.015582 0)
(10.0456 -0.0160784 0)
(10.0498 -0.0165251 0)
(10.0539 -0.0169309 0)
(10.0578 -0.0173021 0)
(10.0616 -0.0176434 0)
(10.0651 -0.0179574 0)
(10.0686 -0.0182403 0)
(10.0005 -0.0036791 0)
(10.0024 -0.00735138 0)
(10.0057 -0.0105236 0)
(10.0099 -0.0130563 0)
(10.0145 -0.0150604 0)
(10.0193 -0.0166748 0)
(10.0242 -0.0179858 0)
(10.0291 -0.0190559 0)
(10.034 -0.0199396 0)
(10.0387 -0.0206801 0)
(10.0433 -0.0213092 0)
(10.0478 -0.0218502 0)
(10.052 -0.0223209 0)
(10.0561 -0.0227351 0)
(10.0601 -0.0231038 0)
(10.0638 -0.0234355 0)
(10.0674 -0.023737 0)
(10.071 -0.0240091 0)
(10.0005 -0.00476056 0)
(10.0026 -0.0096552 0)
(10.0064 -0.0137822 0)
(10.0111 -0.0169166 0)
(10.0161 -0.0193275 0)
(10.0212 -0.0212396 0)
(10.0263 -0.0227595 0)
(10.0314 -0.0239683 0)
(10.0364 -0.0249401 0)
(10.0413 -0.0257312 0)
(10.0459 -0.0263821 0)
(10.0505 -0.0269229 0)
(10.0548 -0.0273768 0)
(10.0589 -0.0277623 0)
(10.0629 -0.028094 0)
(10.0667 -0.0283841 0)
(10.0702 -0.0286417 0)
(10.0738 -0.0288696 0)
(10.0005 -0.0057502 0)
(10.0028 -0.0120326 0)
(10.0072 -0.0171201 0)
(10.0125 -0.0207575 0)
(10.018 -0.0235082 0)
(10.0234 -0.0256725 0)
(10.0288 -0.0273643 0)
(10.0341 -0.028692 0)
(10.0392 -0.0297519 0)
(10.0441 -0.0306088 0)
(10.0489 -0.0313062 0)
(10.0535 -0.0318762 0)
(10.0578 -0.032344 0)
(10.062 -0.0327298 0)
(10.0659 -0.0330507 0)
(10.0697 -0.0333226 0)
(10.0733 -0.0335611 0)
(10.0768 -0.0337807 0)
(10.0003 -0.0065722 0)
(10.0027 -0.0145309 0)
(10.008 -0.0203724 0)
(10.014 -0.0242357 0)
(10.0199 -0.0271784 0)
(10.0256 -0.0294615 0)
(10.0312 -0.0311654 0)
(10.0366 -0.0324437 0)
(10.0418 -0.0334296 0)
(10.0468 -0.034204 0)
(10.0516 -0.0348181 0)
(10.0562 -0.0353086 0)
(10.0605 -0.0357024 0)
(10.0646 -0.0360197 0)
(10.0685 -0.0362767 0)
(10.0723 -0.0364886 0)
(10.0757 -0.0366704 0)
(10.0791 -0.0368347 0)
(9.99983 -0.00717974 0)
(10.0024 -0.0180395 0)
(10.0088 -0.0245423 0)
(10.0155 -0.0284098 0)
(10.0216 -0.0316266 0)
(10.0275 -0.0342688 0)
(10.0333 -0.0362904 0)
(10.0388 -0.0378313 0)
(10.044 -0.0390168 0)
(10.049 -0.0399227 0)
(10.0537 -0.0406043 0)
(10.0581 -0.0411072 0)
(10.0624 -0.0414675 0)
(10.0664 -0.0417131 0)
(10.0702 -0.0418669 0)
(10.0738 -0.0419509 0)
(10.0771 -0.0419942 0)
(10.0804 -0.0420424 0)
(9.99842 -0.00498288 0)
(10.0008 -0.0202126 0)
(10.0089 -0.0269867 0)
(10.0162 -0.0296491 0)
(10.0221 -0.0315475 0)
(10.028 -0.0329981 0)
(10.0338 -0.0341394 0)
(10.0392 -0.0351528 0)
(10.0444 -0.0360983 0)
(10.0492 -0.0369721 0)
(10.0538 -0.037765 0)
(10.0581 -0.0384728 0)
(10.0622 -0.0390934 0)
(10.066 -0.0396255 0)
(10.0696 -0.0400682 0)
(10.0729 -0.0404237 0)
(10.0759 -0.0407033 0)
(10.0787 -0.0409345 0)
(9.9948 -0.00316128 0)
(9.99587 -0.0256245 0)
(10.0073 -0.039381 0)
(10.0159 -0.0486147 0)
(10.022 -0.0544876 0)
(10.0276 -0.0574262 0)
(10.0328 -0.058532 0)
(10.0375 -0.0586567 0)
(10.0418 -0.0582454 0)
(10.0457 -0.0575369 0)
(10.0494 -0.0566773 0)
(10.0528 -0.0557562 0)
(10.0559 -0.0548241 0)
(10.0588 -0.0539046 0)
(10.0614 -0.0530029 0)
(10.0638 -0.0521106 0)
(10.066 -0.051222 0)
(10.0679 -0.0503469 0)
(9.9852 0.00578391 0)
(9.98191 0.0249046 0)
(9.9942 0.0365701 0)
(10.0038 0.0322205 0)
(10.0111 0.0224114 0)
(10.0171 0.0124165 0)
(10.0216 0.00328738 0)
(10.0247 -0.00478092 0)
(10.0268 -0.0117191 0)
(10.028 -0.0175693 0)
(10.0285 -0.0224447 0)
(10.0285 -0.0264774 0)
(10.0279 -0.0297911 0)
(10.027 -0.0324918 0)
(10.0257 -0.034662 0)
(10.0241 -0.0363519 0)
(10.0222 -0.0375776 0)
(10.0196 -0.0382348 0)
(10.0137 -0.317332 0)
(10.0102 -0.326305 0)
(9.99904 -0.271491 0)
(9.98301 -0.224847 0)
(9.96863 -0.188111 0)
(9.95478 -0.158771 0)
(9.93983 -0.135686 0)
(9.92347 -0.117658 0)
(9.90594 -0.103519 0)
(9.88743 -0.0923354 0)
(9.86816 -0.083413 0)
(9.8483 -0.0762309 0)
(9.82806 -0.0703945 0)
(9.8076 -0.0656007 0)
(9.7871 -0.0616091 0)
(9.7667 -0.058208 0)
(9.74659 -0.0551688 0)
(9.72614 -0.0518756 0)
(9.95413 0.913093 0)
(9.9541 0.561007 0)
(9.86636 0.375424 0)
(9.75307 0.258538 0)
(9.63911 0.180507 0)
(9.52814 0.126957 0)
(9.42042 0.0891964 0)
(9.31674 0.0619957 0)
(9.21774 0.0421144 0)
(9.12367 0.0274315 0)
(9.03453 0.0165031 0)
(8.95025 0.00832292 0)
(8.87066 0.00217762 0)
(8.7956 -0.00244513 0)
(8.72488 -0.00591525 0)
(8.6583 -0.00849313 0)
(8.59594 -0.010324 0)
(8.53587 -0.0112513 0)
(0.0246813 -0.0661489 0)
(0.0567094 -0.0594449 0)
(0.0791181 -0.0393819 0)
(0.0883313 -0.0155483 0)
(0.0793578 0.00934566 0)
(0.057023 0.0320675 0)
(0.0248411 0.0506667 -2.3711e-19)
(-0.0195671 0.0636335 2.24464e-19)
(-0.0664825 0.0687388 0)
(-0.117152 0.0706071 1.5604e-19)
(-0.170237 0.071276 0)
(-0.225014 0.0713621 0)
(-0.281018 0.0710491 0)
(-0.337797 0.0704149 -9.39473e-20)
(-0.395134 0.0695884 0)
(-0.45276 0.0685964 0)
(-0.510455 0.0674565 7.25722e-20)
(-0.568021 0.0661896 0)
(-0.625287 0.0648182 0)
(-0.682104 0.0633645 0)
(-0.738348 0.0618494 -5.6634e-20)
(-0.793912 0.0602923 0)
(-0.848712 0.0587101 -5.14677e-20)
(-0.902679 0.057118 0)
(-0.955761 0.0555291 0)
(-1.00792 0.0539544 -4.57307e-20)
(-1.05913 0.0524034 0)
(-1.10937 0.0508837 4.28286e-20)
(-1.15865 0.0494019 0)
(-1.20697 0.0479633 -4.04467e-20)
(-1.25433 0.0465721 0)
(-1.30075 0.0452317 0)
(-1.34626 0.0439449 0)
(-1.39088 0.0427139 0)
(-1.43464 0.0415402 0)
(-1.47759 0.0404247 3.53309e-20)
(-1.51975 0.0393683 0)
(-1.56116 0.038371 -6.81441e-20)
(-1.60188 0.0374326 0)
(-1.64193 0.0365525 6.59234e-20)
(-1.68137 0.0357298 0)
(-1.72025 0.0349632 0)
(-1.7586 0.0342513 -6.3023e-20)
(-1.79648 0.0335927 0)
(-1.83393 0.0329858 -6.13127e-20)
(-1.871 0.0324292 6.05116e-20)
(-1.90773 0.0319215 0)
(-1.94418 0.0314613 5.9001e-20)
(-1.98039 0.0310474 5.82856e-20)
(-2.01641 0.0306783 0)
(-2.05227 0.0303522 0)
(-2.08803 0.0300676 0)
(-2.12374 0.0298224 0)
(-2.15942 0.0296149 0)
(-2.19513 0.029443 -5.4416e-20)
(-2.23091 0.0293048 0)
(-2.2668 0.0291984 5.32481e-20)
(-2.30284 0.029122 0)
(-2.33906 0.0290737 0)
(-2.37551 0.0290512 -5.15789e-20)
(-2.41221 0.0290524 0)
(-2.4492 0.0290743 5.05121e-20)
(-2.48652 0.0291143 0)
(-2.52418 0.0291692 0)
(-2.56221 0.0292361 0)
(-2.60064 0.029312 -4.84683e-20)
(-2.63947 0.0293938 0)
(-2.67873 0.029478 0)
(-2.71842 0.029561 -4.69996e-20)
(-2.75854 0.0296386 0)
(-2.79909 0.0297064 -4.6045e-20)
(-2.84005 0.02976 0)
(-2.88142 0.0297945 0)
(-2.92317 0.029805 0)
(-2.96526 0.0297861 4.4178e-20)
(-3.00765 0.0297321 0)
(-3.05029 0.0296369 0)
(-3.0931 0.0294939 4.27942e-20)
(-3.13603 0.0292965 4.23313e-20)
(-3.17897 0.0290377 0)
(-3.22182 0.0287103 4.13958e-20)
(-3.26446 0.0283065 0)
(-3.30676 0.0278186 8.08735e-20)
(-3.34857 0.0272382 0)
(-3.38972 0.0265562 7.88768e-20)
(-3.43002 0.0257626 0)
(-3.46925 0.0248472 -7.67614e-20)
(-3.5072 0.0237998 0)
(-3.54362 0.0226105 0)
(-3.57823 0.0212694 0)
(-3.61074 0.0197664 7.19685e-20)
(-3.64081 0.0180906 0)
(-3.66808 0.0162294 -6.91559e-20)
(-3.69221 0.0141646 0)
(-3.71282 0.0118697 6.59584e-20)
(-3.72948 0.00931636 6.41861e-20)
(-3.74169 0.00649213 6.22757e-20)
(-3.74885 0.00341163 0)
(-3.75046 0.000114834 0)
(-3.74612 -0.00340415 0)
(-3.73531 -0.00718261 0)
(-3.71751 -0.0112276 0)
(-3.69219 -0.0155413 0)
(-3.65882 -0.0201225 0)
(-3.61689 -0.0249658 0)
(-3.56591 -0.0300616 -3.48097e-20)
(-3.50541 -0.0353947 -3.02325e-20)
(-3.43498 -0.0409438 0)
(-3.35428 -0.0466816 0)
(-3.26305 -0.0525734 0)
(-3.1611 -0.0585766 -7.45722e-21)
(-3.0484 -0.0646407 0)
(-2.92503 -0.0707069 0)
(-2.79122 -0.0767088 0)
(-2.64737 -0.0825743 0)
(-2.49406 -0.0882289 -3.43982e-20)
(-2.33201 -0.093598 0)
(-2.16215 -0.0986085 0)
(-1.98553 -0.10319 6.98897e-20)
(-1.80336 -0.107278 -8.41432e-20)
(-1.61692 -0.110811 0)
(-1.42759 -0.113746 -1.17517e-19)
(-1.23673 -0.116068 0)
(-1.04571 -0.117822 1.59631e-19)
(-0.855817 -0.119233 0)
(-0.668156 -0.120711 0)
(-0.483851 -0.122423 0)
(-0.303482 -0.124065 0)
(-0.132131 -0.123784 0)
(0.0468101 -0.117242 -7.30944e-19)
(0.206384 -0.107402 -6.88339e-19)
(0.35825 -0.0979269 0)
(0.501407 -0.0891899 0)
(0.635807 -0.081182 0)
(0.761646 -0.0738586 5.64419e-19)
(0.879218 -0.0671733 0)
(0.988863 -0.0610782 0)
(1.09096 -0.0555275 0)
(1.18591 -0.0504805 5.0037e-19)
(1.27415 -0.0459018 -4.89051e-19)
(1.35611 -0.0417573 0)
(1.43222 -0.0380106 0)
(1.50289 -0.0346251 -4.62218e-19)
(1.56852 -0.031568 -4.5513e-19)
(1.62948 -0.0288088 0)
(1.68616 -0.026318 0)
(1.7389 -0.02407 4.37923e-19)
(1.78802 -0.0220444 -4.33282e-19)
(1.83383 -0.0202227 0)
(1.87661 -0.0185853 0)
(1.91662 -0.0171116 -4.21845e-19)
(1.9541 -0.0157828 0)
(1.98927 -0.0145842 0)
(2.02234 -0.013505 -4.1328e-19)
(2.0535 -0.0125341 0)
(2.08293 -0.0116601 -4.08746e-19)
(2.11078 -0.0108736 0)
(2.13722 -0.0101658 0)
(2.16236 -0.00952961 0)
(2.18635 -0.00895739 4.01693e-19)
(2.20928 -0.00844158 0)
(2.23128 -0.00797694 0)
(2.25242 -0.0075581 0)
(2.2728 -0.00717887 0)
(2.29248 -0.00683337 0)
(2.31153 -0.00651585 0)
(2.32998 -0.00622124 3.93385e-19)
(2.34788 -0.00594077 3.92482e-19)
(2.3652 -0.00566478 0)
(2.38194 -0.00538323 0)
(2.39802 -0.00508272 0)
(2.41333 -0.00474006 -3.89698e-19)
(2.42763 -0.00432451 0)
(2.44059 -0.00378822 7.78453e-19)
(2.45163 -0.00304786 -7.78981e-19)
(2.45972 -0.00196267 -7.80678e-19)
(2.46338 -0.000214386 7.83286e-19)
(2.45844 0.00317019 -7.88236e-19)
(2.44018 0.010521 7.98667e-19)
(2.34724 0.035257 0)
(0.00672852 -0.111681 0)
(0.0106963 -0.0712845 0)
(-0.00145894 -0.0231245 1.90737e-19)
(-0.0226569 0.0222111 0)
(-0.0488323 0.0607265 -1.25347e-19)
(-0.0797085 0.0918196 -1.13809e-19)
(-0.114378 0.115746 -5.27206e-20)
(-0.152693 0.132771 -4.95293e-20)
(-0.194217 0.144014 0)
(-0.23885 0.151496 -4.34571e-20)
(-0.286043 0.156477 0)
(-0.335209 0.159715 0)
(-0.38586 0.161645 7.17531e-20)
(-0.437594 0.16254 3.40064e-20)
(-0.490078 0.162592 -6.41488e-20)
(-0.54302 0.16193 -6.09387e-20)
(-0.596175 0.160659 -2.91674e-20)
(-0.649337 0.158871 0)
(-0.702328 0.156651 0)
(-0.754998 0.154074 0)
(-0.807218 0.151209 -2.4484e-20)
(-0.858883 0.148117 0)
(-0.909904 0.144853 6.91136e-20)
(-0.960208 0.141466 0)
(-1.00974 0.137998 0)
(-1.05846 0.134487 2.12011e-20)
(-1.10633 0.130965 0)
(-1.15333 0.127459 -2.01786e-20)
(-1.19946 0.123993 -3.92276e-20)
(-1.2447 0.120587 1.93139e-20)
(-1.28907 0.117258 0)
(-1.33258 0.114019 0)
(-1.37523 0.110883 0)
(-1.41706 0.107858 -3.56695e-20)
(-1.45808 0.104951 -3.51028e-20)
(-1.49833 0.102169 -1.73901e-20)
(-1.53784 0.0995143 0)
(-1.57664 0.0969907 3.38169e-20)
(-1.61477 0.0945994 0)
(-1.65226 0.0923411 -3.29682e-20)
(-1.68916 0.0902154 0)
(-1.72551 0.0882213 0)
(-1.76135 0.0863571 3.18695e-20)
(-1.79672 0.0846207 0)
(-1.83166 0.0830097 9.33271e-20)
(-1.86621 0.0815215 -3.09373e-20)
(-1.90042 0.0801531 0)
(-1.93434 0.0789018 -3.03899e-20)
(-1.968 0.0777641 -3.01353e-20)
(-2.00145 0.0767368 0)
(-2.03473 0.0758162 0)
(-2.06787 0.0749985 0)
(-2.10094 0.0742798 0)
(-2.13395 0.0736563 0)
(-2.16697 0.0731237 2.88209e-20)
(-2.20001 0.0726781 5.69146e-20)
(-2.23313 0.0723152 -2.84487e-20)
(-2.26635 0.0720304 0)
(-2.29972 0.0718192 5.5858e-20)
(-2.33328 0.0716761 -2.75911e-20)
(-2.36704 0.0715955 0)
(-2.40105 0.0715712 -2.76251e-20)
(-2.43533 0.0715964 0)
(-2.46991 0.0716642 0)
(-2.50482 0.0717675 -5.40292e-20)
(-2.54007 0.0718987 2.70499e-20)
(-2.57567 0.0720496 -5.3482e-20)
(-2.61164 0.0722112 5.32165e-20)
(-2.64799 0.0723738 2.66504e-20)
(-2.68471 0.0725265 0)
(-2.7218 0.0726579 2.63919e-20)
(-2.75924 0.0727557 0)
(-2.79702 0.072807 0)
(-2.8351 0.0727983 0)
(-2.87344 0.0727147 2.55415e-20)
(-2.912 0.0725408 0)
(-2.95072 0.0722595 5.08737e-20)
(-2.98952 0.0718536 -7.60426e-20)
(-3.02832 0.0713045 -2.53004e-20)
(-3.06701 0.0705935 0)
(-3.10549 0.0697007 -2.49736e-20)
(-3.14362 0.0686056 0)
(-3.18125 0.0672871 -4.92075e-20)
(-3.21823 0.0657233 0)
(-3.25437 0.0638915 -4.83536e-20)
(-3.28946 0.061768 9.53285e-20)
(-3.32329 0.0593287 4.73522e-20)
(-3.35561 0.056549 0)
(-3.38616 0.0534048 0)
(-3.41467 0.0498722 0)
(-3.44081 0.0459279 -4.47516e-20)
(-3.46426 0.0415491 0)
(-3.48465 0.0367124 4.30603e-20)
(-3.50162 0.0313879 0)
(-3.51482 0.0255319 -1.23242e-19)
(-3.52382 0.0190941 -3.98941e-20)
(-3.52809 0.0120422 -3.86416e-20)
(-3.52707 0.00440049 0)
(-3.52051 -0.00377488 0)
(-3.50786 -0.0124841 0)
(-3.48862 -0.02175 0)
(-3.46232 -0.0315712 0)
(-3.42844 -0.0419329 -5.6864e-20)
(-3.38651 -0.0528096 -5.23279e-20)
(-3.33605 -0.064164 0)
(-3.27664 -0.075946 2.03707e-20)
(-3.20788 -0.0880903 1.7486e-20)
(-3.12942 -0.100516 0)
(-3.04099 -0.113124 2.42919e-20)
(-2.9424 -0.125801 0)
(-2.83358 -0.138414 -6.42173e-21)
(-2.71455 -0.150814 0)
(-2.58549 -0.162839 0)
(-2.44671 -0.174313 -1.29689e-20)
(-2.29869 -0.185057 0)
(-2.14206 -0.194891 1.68009e-20)
(-1.97761 -0.203644 0)
(-1.80627 -0.211162 0)
(-1.6291 -0.217313 2.76368e-20)
(-1.44727 -0.22199 3.64471e-20)
(-1.26202 -0.225114 0)
(-1.07462 -0.226657 -4.33555e-20)
(-0.886334 -0.226669 0)
(-0.698424 -0.225266 5.48453e-20)
(-0.512064 -0.22275 1.2587e-19)
(-0.328286 -0.219558 0)
(-0.148012 -0.215674 0)
(0.0305649 -0.210641 0)
(0.198906 -0.203965 0)
(0.361112 -0.193687 1.72769e-19)
(0.514132 -0.18099 5.2311e-19)
(0.659126 -0.168432 0)
(0.796058 -0.156264 0)
(0.924977 -0.144633 0)
(1.04602 -0.133605 -1.87953e-19)
(1.15941 -0.123216 0)
(1.26544 -0.113481 0)
(1.36445 -0.104405 3.85596e-19)
(1.45678 -0.0959793 1.93327e-19)
(1.54283 -0.0881908 1.97772e-19)
(1.62298 -0.0810185 0)
(1.69764 -0.074434 0)
(1.76718 -0.0684044 2.02051e-19)
(1.832 -0.0628955 -2.0155e-19)
(1.89243 -0.0578715 0)
(1.94884 -0.0532955 0)
(2.00154 -0.0491326 -2.06647e-19)
(2.05084 -0.0453516 6.21752e-19)
(2.09701 -0.0419225 0)
(2.14032 -0.0388153 0)
(2.18102 -0.0360005 2.10461e-19)
(2.21934 -0.0334502 0)
(2.25549 -0.0311408 4.23538e-19)
(2.28966 -0.0290528 -2.1224e-19)
(2.32203 -0.0271665 0)
(2.35277 -0.0254625 2.14571e-19)
(2.38203 -0.0239245 4.30043e-19)
(2.40995 -0.0225373 0)
(2.43666 -0.0212871 0)
(2.46229 -0.0201607 -2.17489e-19)
(2.48693 -0.0191448 0)
(2.51069 -0.0182287 4.37232e-19)
(2.53366 -0.0174016 0)
(2.55591 -0.0166518 0)
(2.57752 -0.015967 0)
(2.59853 -0.0153349 0)
(2.619 -0.014743 -2.21964e-19)
(2.63894 -0.0141735 -2.22556e-19)
(2.65836 -0.0136052 0)
(2.67724 -0.0130137 0)
(2.69552 -0.0123655 0)
(2.71309 -0.0116082 2.25011e-19)
(2.72974 -0.0106657 0)
(2.74515 -0.00941974 -4.53088e-19)
(2.75883 -0.00766749 4.55072e-19)
(2.7699 -0.00506371 4.57655e-19)
(2.77686 -0.000854331 4.59999e-19)
(2.77654 0.00691905 4.63872e-19)
(2.76753 0.023193 4.68356e-19)
(2.72063 0.0630818 0)
(-0.015616 -0.0961759 0)
(-0.0335611 -0.0272142 0)
(-0.0615933 0.0332688 -1.15724e-19)
(-0.0922618 0.0828104 -8.64302e-20)
(-0.124558 0.124574 7.36683e-20)
(-0.158009 0.159477 6.63879e-20)
(-0.192914 0.187773 9.22566e-23)
(-0.229644 0.209797 0)
(-0.268462 0.226256 0)
(-0.309399 0.238231 0)
(-0.352216 0.246712 0)
(-0.396583 0.252467 0)
(-0.442167 0.256057 -1.30867e-19)
(-0.488665 0.257888 0)
(-0.535808 0.258269 3.96091e-20)
(-0.583365 0.257436 3.78548e-20)
(-0.631134 0.255582 0)
(-0.678944 0.252871 0)
(-0.726644 0.249446 0)
(-0.774108 0.245436 0)
(-0.821225 0.240951 3.12256e-20)
(-0.867902 0.236091 0)
(-0.914059 0.230946 -2.93279e-20)
(-0.959632 0.225594 0)
(-1.00457 0.220102 0)
(-1.04882 0.214531 0)
(-1.09237 0.208931 -5.25964e-20)
(-1.13518 0.203349 0)
(-1.17724 0.197822 2.52525e-20)
(-1.21854 0.192383 -4.92904e-20)
(-1.25909 0.187059 0)
(-1.29888 0.181873 0)
(-1.33793 0.176845 0)
(-1.37625 0.171988 2.30501e-20)
(-1.41386 0.167315 2.2696e-20)
(-1.45078 0.162836 0)
(-1.48703 0.158557 0)
(-1.52265 0.154484 -4.33256e-20)
(-1.55765 0.150619 -4.27801e-20)
(-1.59208 0.146963 4.22674e-20)
(-1.62596 0.143516 0)
(-1.65933 0.140277 0)
(-1.69222 0.137244 0)
(-1.72468 0.134415 0)
(-1.75672 0.131785 -4.03144e-20)
(-1.7884 0.129351 -3.97517e-20)
(-1.81975 0.127109 3.9409e-20)
(-1.85081 0.125053 0)
(-1.88162 0.12318 0)
(-1.9122 0.121482 0)
(-1.94261 0.119956 0)
(-1.97287 0.118595 -3.79444e-20)
(-2.00303 0.117392 0)
(-2.03312 0.116342 0)
(-2.06317 0.115439 -3.72324e-20)
(-2.09324 0.114676 -3.72185e-20)
(-2.12333 0.114046 0)
(-2.15351 0.113543 7.32452e-20)
(-2.18378 0.113158 -3.66404e-20)
(-2.2142 0.112883 3.6467e-20)
(-2.24479 0.112708 0)
(-2.27557 0.112625 0)
(-2.30659 0.112621 0)
(-2.33785 0.112687 0)
(-2.36939 0.11281 3.57231e-20)
(-2.40122 0.112977 7.07868e-20)
(-2.43335 0.113176 3.54736e-20)
(-2.46581 0.11339 -3.53569e-20)
(-2.4986 0.113604 0)
(-2.53171 0.113798 6.98729e-20)
(-2.56515 0.113955 6.96639e-20)
(-2.59889 0.114052 6.94592e-20)
(-2.63294 0.114069 -6.92569e-20)
(-2.66724 0.113982 0)
(-2.70178 0.113765 -1.03462e-19)
(-2.73651 0.113393 0)
(-2.77136 0.112836 3.40323e-20)
(-2.80626 0.112066 3.42685e-20)
(-2.84115 0.11105 0)
(-2.87591 0.109757 0)
(-2.91045 0.108153 6.73902e-20)
(-2.94462 0.106203 0)
(-2.9783 0.103872 6.67178e-20)
(-3.01132 0.10112 0)
(-3.04349 0.0979123 -6.58841e-20)
(-3.07463 0.0942084 -1.30965e-19)
(-3.1045 0.0899696 0)
(-3.13287 0.0851568 0)
(-3.15948 0.0797309 0)
(-3.18405 0.0736529 -6.27409e-20)
(-3.20627 0.0668843 0)
(-3.2258 0.0593872 -6.08941e-20)
(-3.24228 0.0511235 0)
(-3.25537 0.0420497 0)
(-3.26469 0.0321132 1.14318e-19)
(-3.26984 0.0212607 0)
(-3.27026 0.00947363 5.41451e-20)
(-3.26562 -0.00320685 0)
(-3.25546 -0.0167548 5.01357e-20)
(-3.23928 -0.0311868 0)
(-3.2166 -0.0465049 0)
(-3.18694 -0.0626918 0)
(-3.14983 -0.0797127 1.18341e-19)
(-3.10477 -0.0975147 3.56469e-20)
(-3.05134 -0.116025 0)
(-2.9891 -0.135148 0)
(-2.91769 -0.154763 0)
(-2.83677 -0.174723 0)
(-2.74612 -0.194852 -1.612e-20)
(-2.64558 -0.214944 2.62572e-20)
(-2.5351 -0.23477 6.86018e-21)
(-2.41476 -0.254073 -7.41715e-21)
(-2.28477 -0.272577 2.49999e-21)
(-2.14551 -0.289992 8.28135e-21)
(-1.99749 -0.306026 0)
(-1.8414 -0.320393 3.38887e-20)
(-1.67808 -0.332829 0)
(-1.50848 -0.343101 -5.59179e-20)
(-1.33368 -0.35102 -3.58532e-20)
(-1.15486 -0.356451 0)
(-0.973231 -0.359316 9.02864e-20)
(-0.790027 -0.359647 5.33656e-20)
(-0.606475 -0.357597 0)
(-0.423763 -0.35337 6.07407e-20)
(-0.242908 -0.347329 -2.10091e-19)
(-0.0646599 -0.339559 0)
(0.109284 -0.329844 0)
(0.276636 -0.318009 0)
(0.436291 -0.304146 0)
(0.589 -0.288314 -1.8042e-19)
(0.734355 -0.271206 -1.90318e-19)
(0.872381 -0.253946 0)
(1.0029 -0.236946 0)
(1.12588 -0.220446 0)
(1.24142 -0.204599 0)
(1.34972 -0.18951 0)
(1.45103 -0.175246 0)
(1.54569 -0.16185 -2.26464e-19)
(1.63404 -0.149338 -1.6702e-21)
(1.71643 -0.137709 0)
(1.79326 -0.126948 0)
(1.86489 -0.117026 -2.40037e-19)
(1.9317 -0.107905 0)
(1.99405 -0.0995437 2.47596e-19)
(2.05228 -0.0918954 2.49496e-19)
(2.10671 -0.0849118 0)
(2.15766 -0.0785444 0)
(2.2054 -0.0727464 -2.58395e-19)
(2.25022 -0.0674735 -5.2015e-19)
(2.29236 -0.0626836 0)
(2.33205 -0.0583366 0)
(2.3695 -0.0543933 0)
(2.40493 -0.0508179 -2.69519e-19)
(2.4385 -0.0475791 2.71508e-19)
(2.47039 -0.0446481 0)
(2.50076 -0.0419967 5.49701e-19)
(2.52975 -0.0395999 2.76265e-19)
(2.5575 -0.037435 -5.56919e-19)
(2.58412 -0.0354808 0)
(2.60973 -0.0337177 0)
(2.63442 -0.0321265 -5.66973e-19)
(2.6583 -0.0306892 -2.85388e-19)
(2.68144 -0.029389 0)
(2.70392 -0.0282085 0)
(2.7258 -0.0271294 0)
(2.74714 -0.0261312 0)
(2.76797 -0.0251932 -5.84838e-19)
(2.78832 -0.0242905 0)
(2.80819 -0.0233899 0)
(2.82756 -0.0224516 0)
(2.84638 -0.0214221 0)
(2.86454 -0.020223 0)
(2.88188 -0.0187361 0)
(2.8981 -0.0167791 -6.04727e-19)
(2.9128 -0.0140488 0)
(2.92527 -0.0100075 0)
(2.93448 -0.00361636 -1.23499e-18)
(2.93836 0.00746174 6.21758e-19)
(2.9381 0.0282333 -6.2897e-19)
(2.91908 0.0699839 6.32508e-19)
(-0.031528 -0.0341044 0)
(-0.0600301 0.046467 3.09217e-19)
(-0.0936182 0.105539 0)
(-0.12959 0.154292 6.54561e-20)
(-0.165457 0.196095 0)
(-0.20093 0.231782 0)
(-0.236534 0.261568 -4.5379e-20)
(-0.272752 0.285671 0)
(-0.309912 0.304543 0)
(-0.348168 0.318856 0)
(-0.387509 0.329321 0)
(-0.42782 0.336586 0)
(-0.468937 0.341192 1.30329e-19)
(-0.510683 0.34358 6.22018e-20)
(-0.552886 0.344107 -5.94874e-20)
(-0.595386 0.343062 0)
(-0.63804 0.340693 0)
(-0.680718 0.337208 0)
(-0.723308 0.332791 0)
(-0.765709 0.327603 0)
(-0.807833 0.321788 4.74723e-20)
(-0.849606 0.315474 4.60217e-20)
(-0.890959 0.308774 -4.469e-20)
(-0.931838 0.301788 4.34657e-20)
(-0.972196 0.294604 0)
(-1.01199 0.2873 0)
(-1.0512 0.279944 4.03955e-20)
(-1.0898 0.272595 0)
(-1.12776 0.265304 0)
(-1.16509 0.258114 3.79317e-20)
(-1.20176 0.251062 3.71496e-20)
(-1.2378 0.244179 3.64874e-20)
(-1.27319 0.23749 0)
(-1.30795 0.231019 0)
(-1.34209 0.22478 -3.47533e-20)
(-1.37562 0.218788 0)
(-1.40857 0.213052 0)
(-1.44095 0.207581 3.34227e-20)
(-1.47278 0.202379 -3.28142e-20)
(-1.5041 0.197449 3.24186e-20)
(-1.53492 0.192792 0)
(-1.56528 0.188406 0)
(-1.5952 0.184291 6.29288e-20)
(-1.62471 0.180443 0)
(-1.65385 0.176858 6.17141e-20)
(-1.68264 0.173532 9.18384e-20)
(-1.71112 0.17046 -9.10465e-20)
(-1.73931 0.167636 6.01267e-20)
(-1.76726 0.165053 0)
(-1.79499 0.162706 0)
(-1.82254 0.160586 5.87782e-20)
(-1.84994 0.158686 2.9297e-20)
(-1.87722 0.157 0)
(-1.90441 0.15552 0)
(-1.93155 0.154237 2.87561e-20)
(-1.95867 0.153143 5.69663e-20)
(-1.9858 0.15223 0)
(-2.01297 0.151488 -5.65971e-20)
(-2.04022 0.150907 5.60997e-20)
(-2.06758 0.150476 -5.58432e-20)
(-2.09506 0.150182 0)
(-2.12271 0.150013 0)
(-2.15055 0.149956 0)
(-2.17859 0.149995 0)
(-2.20688 0.150115 0)
(-2.23541 0.150299 -5.48272e-20)
(-2.26422 0.150528 0)
(-2.29331 0.15078 0)
(-2.3227 0.151034 0)
(-2.35238 0.151264 -1.08231e-19)
(-2.38236 0.151446 -5.40927e-20)
(-2.41263 0.151549 -5.39666e-20)
(-2.44318 0.151544 1.07484e-19)
(-2.47397 0.151398 -5.35257e-20)
(-2.50499 0.151076 5.36036e-20)
(-2.53619 0.150541 0)
(-2.56753 0.149753 -5.33538e-20)
(-2.59893 0.148671 0)
(-2.63032 0.147251 0)
(-2.66163 0.145448 0)
(-2.69273 0.143213 -1.05357e-19)