/*--------------------------------*- C++ -*----------------------------------*\
| =========                 |                                                 |
| \\      /  F ield         | OpenFOAM: The Open Source CFD Toolbox           |
|  \\    /   O peration     | Version:  2.2.x                                 |
|   \\  /    A nd           | Web:      www.OpenFOAM.org                      |
|    \\/     M anipulation  |                                                 |
\*---------------------------------------------------------------------------*/
FoamFile
{
    version     2.0;
    format      ascii;
    class       volScalarField;
    location    "650";
    object      epsilon;
}
// * * * * * * * * * * * * * * * * * * * * * * * * * * * * * * * * * * * * * //

dimensions      [0 2 -3 0 0 0 0];

internalField   nonuniform List<scalar> 
12225
(
1739.11
3020.51
4030.08
4714.53
5131.94
5357.73
5455.54
5472.03
5439
5377.25
5300.04
5215.66
5129.21
5043.78
4961.14
4882.2
4806.25
4739.83
187.432
345.31
471.695
572.3
644.886
692.989
722.809
740.09
749.254
753.439
754.763
754.609
753.849
753.029
752.522
752.863
756.317
763.796
41.8453
72.5091
98.5905
120.691
138.681
152.66
163.126
170.718
176.062
179.71
182.121
183.658
184.604
185.17
185.524
185.825
186.267
186.706
20.3598
27.9831
35.4715
42.3254
48.3643
53.5236
57.8321
61.3672
64.2246
66.5035
68.2988
69.6967
70.7724
71.5908
72.2073
72.6705
73.0179
73.2319
16.0562
18.2138
20.6758
23.1516
25.4996
27.6468
29.5644
31.2493
32.7118
33.9689
35.0407
35.9482
36.7115
37.3498
37.8805
38.3188
38.6762
38.9506
15.0131
15.5456
16.3131
17.1966
18.1162
19.0201
19.8782
20.6744
21.4014
22.0576
22.6445
23.1658
23.626
24.0302
24.3834
24.6904
24.955
25.1759
14.7583
14.7814
14.9213
15.1496
15.4364
15.7557
16.0877
16.4186
16.7392
17.0437
17.3286
17.5923
17.8341
18.0544
18.2536
18.4327
18.5925
18.7315
14.7063
14.5999
14.5497
14.5524
14.5992
14.6794
14.7826
14.9003
15.0256
15.1533
15.2797
15.4021
15.5188
15.6285
15.7307
15.825
15.911
15.987
14.6923
14.5448
14.4247
14.3339
14.2712
14.2336
14.2169
14.2168
14.2293
14.251
14.2791
14.3111
14.3453
14.3803
14.415
14.4486
14.4803
14.5089
14.6883
14.5275
14.3816
14.2517
14.1383
14.041
13.9587
13.8899
13.8329
13.786
13.7476
13.7163
13.6906
13.6695
13.652
13.6374
13.6248
13.6135
14.6872
14.5228
14.3691
14.2261
14.0938
13.9722
13.8609
13.7593
13.6669
13.5831
13.5069
13.4378
13.3749
13.3176
13.2653
13.2173
13.1732
13.1327
14.6868
14.5216
14.3659
14.2194
14.0816
13.9521
13.8307
13.717
13.6105
13.5109
13.4178
13.3308
13.2494
13.1733
13.1021
13.0354
12.973
12.9149
14.6866
14.5211
14.365
14.2176
14.0785
13.9471
13.823
13.7057
13.5949
13.4902
13.3913
13.2978
13.2094
13.1259
13.0469
12.9721
12.9014
12.8352
14.6865
14.5209
14.3646
14.217
14.0775
13.9456
13.8209
13.7028
13.5909
13.4849
13.3845
13.2892
13.1988
13.113
13.0316
12.9543
12.8808
12.8118
14.6864
14.5207
14.3643
14.2166
14.077
13.9449
13.82
13.7017
13.5895
13.4832
13.3824
13.2867
13.1958
13.1095
13.0274
12.9494
12.8752
12.8054
14.6863
14.5206
14.3641
14.2163
14.0766
13.9445
13.8194
13.701
13.5887
13.4823
13.3813
13.2855
13.1944
13.1079
13.0257
12.9475
12.8731
12.8031
14.6863
14.5205
14.364
14.2161
14.0764
13.9442
13.8191
13.7005
13.5882
13.4817
13.3806
13.2847
13.1936
13.1069
13.0246
12.9463
12.8718
12.8017
14.6863
14.5205
14.364
14.2161
14.0763
13.9441
13.8189
13.7003
13.588
13.4814
13.3803
13.2843
13.1931
13.1064
13.024
12.9457
12.8711
12.801
14.6863
14.5205
14.364
14.2161
14.0763
13.9441
13.8189
13.7003
13.588
13.4814
13.3803
13.2842
13.1931
13.1064
13.024
12.9456
12.8711
12.801
14.6863
14.5206
14.3641
14.2162
14.0765
13.9443
13.8191
13.7006
13.5883
13.4818
13.3808
13.2849
13.1938
13.1073
13.0251
12.9469
12.8726
12.8027
14.6864
14.5207
14.3642
14.2165
14.0769
13.9449
13.82
13.7019
13.5901
13.4842
13.3839
13.2889
13.1988
13.1134
13.0324
12.9556
12.8827
12.8144
14.6865
14.5209
14.3648
14.2177
14.0791
13.9486
13.8258
13.7104
13.6018
13.4999
13.404
13.314
13.2294
13.15
13.0752
13.0049
12.9389
12.8774
14.6868
14.5224
14.369
14.2265
14.095
13.9742
13.8637
13.7628
13.6711
13.5877
13.512
13.4432
13.3806
13.3236
13.2715
13.224
13.1805
13.1411
14.6896
14.5346
14.3997
14.286
14.1933
14.12
14.0639
14.0227
13.9939
13.9753
13.9649
13.961
13.962
13.9667
13.9742
13.9837
13.9945
14.0064
14.712
14.6198
14.5883
14.6113
14.6786
14.7791
14.9026
15.0409
15.1873
15.337
15.4863
15.6325
15.7737
15.9088
16.0369
16.1576
16.2708
16.3764
14.8713
15.1221
15.5436
16.0692
16.6494
17.249
17.845
18.4229
18.9738
19.4928
19.9773
20.4265
20.8407
21.2209
21.5686
21.8855
22.1736
22.4346
15.8759
17.7061
19.7886
21.8988
23.9446
25.8789
27.6792
29.3369
30.8506
32.2232
33.4603
34.5696
35.5596
36.4396
37.2189
37.9063
38.5102
39.0386
22.1652
31.1005
39.3162
46.8943
53.8925
60.282
66.0506
71.2051
75.7639
79.7563
83.2213
86.2042
88.7532
90.9165
92.74
94.2648
95.5242
96.5377
68.0189
114.9
154.783
191.789
226.037
256.866
283.965
307.311
327.063
343.512
357.02
367.978
376.77
383.746
389.218
393.443
396.607
398.715
723.143
1065.45
1375.75
1655.21
1913.04
2142.31
2339.72
2504.91
2639.55
2746.5
2829.15
2890.99
2935.37
2965.33
2983.54
2992.31
2993.59
2988.89
0.471364
0.422623
0.594514
0.74827
0.919092
1.10514
1.34755
1.66139
2.03746
2.47421
2.96713
3.51283
4.10914
4.75461
5.44828
6.18944
6.97767
7.81274
8.69469
9.62379
10.6005
11.6257
12.7001
13.8251
15.002
16.2326
17.5185
18.8621
20.2657
21.7322
23.2647
24.867
26.5434
28.2992
30.1409
32.0762
34.1154
36.271
38.5597
41.0033
43.578
46.2745
49.0971
52.0504
55.1394
58.3689
61.7437
65.2686
68.9484
72.7878
76.7915
80.9641
85.31
89.8338
94.5395
99.4314
104.513
109.789
115.263
120.936
126.814
132.898
139.19
145.694
152.41
159.339
166.483
173.841
181.415
189.202
197.202
205.413
213.833
222.458
231.285
240.309
249.525
258.927
268.507
278.257
288.17
298.234
308.44
318.774
329.223
339.774
350.41
361.114
371.87
382.657
393.457
404.248
415.011
425.725
436.373
446.937
457.408
467.782
478.069
488.299
498.483
508.417
518.085
527.472
536.562
545.338
553.785
561.888
569.632
577.004
583.992
590.585
596.772
602.546
607.899
612.825
617.321
621.382
625.009
628.202
630.963
633.296
635.205
636.697
637.779
638.46
638.749
638.656
638.194
637.375
636.213
634.722
632.918
630.815
628.43
625.776
622.869
619.726
616.363
612.797
609.044
605.119
601.035
596.809
592.458
587.996
583.434
578.786
574.063
569.282
564.451
559.571
554.66
549.721
544.746
539.761
534.757
529.718
524.662
519.543
514.403
509.178
503.783
498.484
493.332
489.683
490.134
491.169
492.193
493.083
493.767
494.181
494.241
493.861
492.918
491.206
488.436
483.716
475.891
457.519
1.48435
0.790641
0.749988
0.841685
0.985551
1.16886
1.39111
1.65175
1.94666
2.27129
2.6219
2.996
3.39207
3.80924
4.24702
4.7052
5.18378
5.68298
6.20321
6.74505
7.3092
7.89655
8.50807
9.14484
9.80807
10.4991
11.2192
11.9699
12.753
13.5699
14.4228
15.3135
16.2443
17.2175
18.2357
19.3015
20.4177
21.5868
22.8112
24.0921
25.4292
26.8229
28.2748
29.7865
31.3598
32.9963
34.6977
36.4657
38.3018
40.2077
42.1848
44.2346
46.3584
48.5576
50.8334
53.187
55.6193
58.1313
60.7239
63.3978
66.1534
68.9913
71.9117
74.9147
78.0002
81.168
84.4177
87.7486
91.1599
94.6506
98.2194
101.865
105.585
109.378
113.241
117.172
121.168
125.225
129.342
133.513
137.734
142.002
146.311
150.658
155.035
159.439
163.862
168.3
172.746
177.194
181.636
186.068
190.483
194.876
199.241
203.576
207.879
212.15
216.392
220.611
224.823
228.949
232.974
236.892
240.696
244.38
247.936
251.36
254.646
257.788
260.781
263.622
266.306
268.83
271.19
273.384
275.41
277.267
278.955
280.472
281.82
282.999
284.011
284.858
285.543
286.069
286.439
286.656
286.726
286.653
286.442
286.099
285.629
285.038
284.333
283.518
282.601
281.588
280.485
279.299
278.036
276.703
275.306
273.85
272.343
270.791
269.198
267.57
265.912
264.229
262.526
260.805
259.07
257.324
255.566
253.8
252.025
250.236
248.435
246.611
244.761
242.884
240.921
238.982
237.122
235.527
234.708
234.066
233.419
232.711
231.913
231.001
229.954
228.752
227.376
225.807
224.038
222.079
220.009
219.566
2.63468
1.32593
1.17846
1.22252
1.34457
1.51828
1.73449
1.98744
2.27142
2.58111
2.91228
3.26209
3.62888
4.01183
4.41069
4.82555
5.25677
5.70488
6.17056
6.65462
7.15794
7.68149
8.22634
8.79357
9.38435
9.99988
10.6414
11.3103
12.0078
12.7354
13.4945
14.2866
15.1132
15.9759
16.8763
17.8157
18.7958
19.8177
20.8827
21.9917
23.1457
24.3457
25.5929
26.8887
28.2343
29.6309
31.0799
32.5825
34.1397
35.7527
37.4227
39.1507
40.9377
42.7847
44.6925
46.6619
48.6937
50.7886
52.9471
55.1697
57.4569
59.8087
62.2255
64.7072
67.2537
69.8648
72.54
75.2789
78.0807
80.9445
83.8694
86.8541
89.8971
92.9969
96.1517
99.3595
102.618
105.925
109.278
112.675
116.111
119.585
123.092
126.63
130.195
133.782
137.388
141.009
144.64
148.277
151.916
155.553
159.182
162.8
166.402
169.987
173.55
177.089
180.602
184.09
187.535
190.912
194.213
197.43
200.557
203.59
206.523
209.35
212.068
214.671
217.156
219.518
221.754
223.861
225.837
227.678
229.382
230.95
232.378
233.668
234.818
235.83
236.704
237.442
238.045
238.515
238.856
239.07
239.16
239.129
238.982
238.723
238.356
237.886
237.317
236.655
235.904
235.069
234.155
233.167
232.112
230.994
229.817
228.587
227.308
225.987
224.627
223.232
221.806
220.354
218.879
217.384
215.87
214.342
212.8
211.243
209.673
208.087
206.482
204.857
203.189
201.519
199.802
198.09
196.421
194.863
193.547
192.301
191.044
189.741
188.373
186.928
185.395
183.769
182.052
180.258
178.428
176.678
175.221
175.23
3.79293
1.89575
1.62007
1.61814
1.718
1.87847
2.08464
2.32827
2.60303
2.90356
3.22563
3.5662
3.92338
4.29619
4.68427
5.08776
5.50706
5.94279
6.39571
6.8667
7.35669
7.86668
8.39771
8.95089
9.52731
10.1281
10.7545
11.4076
12.0887
12.799
13.5398
14.3122
15.1177
15.9573
16.8325
17.7443
18.6939
19.6826
20.7113
21.7812
22.8933
24.0488
25.2488
26.4947
27.7875
29.1285
30.519
31.96
33.4527
34.9983
36.5978
38.2523
39.9628
41.7303
43.5557
45.44
47.3839
49.3881
51.4533
53.5802
55.7692
58.0208
60.3351
62.7125
65.1529
67.6563
70.2226
72.8513
75.542
78.294
81.1065
83.9786
86.909
89.8966
92.9398
96.0369
99.1861
102.385
105.633
108.926
112.261
115.638
119.052
122.5
125.981
129.489
133.022
136.576
140.148
143.732
147.327
150.926
154.526
158.122
161.71
165.285
168.844
172.381
175.893
179.369
182.794
186.154
189.441
192.648
195.768
198.797
201.728
204.556
207.276
209.883
212.374
214.742
216.986
219.1
221.083
222.93
224.641
226.213
227.644
228.934
230.083
231.091
231.957
232.684
233.273
233.725
234.043
234.229
234.287
234.22
234.031
233.724
233.304
232.775
232.141
231.408
230.58
229.662
228.659
227.575
226.417
225.19
223.898
222.546
221.138
219.681
218.179
216.636
215.055
213.442
211.8
210.132
208.439
206.727
204.996
203.243
201.474
199.684
197.869
196.045
194.193
192.332
190.446
188.56
186.697
184.892
183.177
181.488
179.786
178.048
176.262
174.42
172.518
170.558
168.551
166.523
164.529
162.697
161.211
160.73
5.56901
2.54601
2.06901
2.00045
2.0693
2.21114
2.40331
2.63474
2.8983
3.18862
3.50157
3.83412
4.18425
4.5508
4.93328
5.33168
5.74636
6.1779
6.62703
7.09463
7.58161
8.08899
8.61778
9.16906
9.7439
10.3434
10.9687
11.6209
12.3012
13.0107
13.7506
14.5221
15.3263
16.1644
17.0376
17.9471
18.8939
19.8793
20.9044
21.9704
23.0784
24.2297
25.4255
26.6672
27.956
29.2931
30.68
32.1178
33.6079
35.1515
36.7499
38.4042
40.1158
41.8856
43.715
45.6049
47.5564
49.5706
51.6482
53.7902
55.9972
58.2701
60.6093
63.0152
65.4883
68.0288
70.6366
73.3118
76.0542
78.8633
81.7385
84.6793
87.6846
90.7535
93.8846
97.0764
100.328
103.636
107
110.417
113.885
117.402
120.965
124.571
128.217
131.9
135.616
139.363
143.136
146.932
150.745
154.572
158.407
162.246
166.083
169.913
173.728
177.525
181.294
185.02
188.689
192.291
195.817
199.26
202.612
205.867
209.019
212.061
214.989
217.796
220.477
223.028
225.443
227.718
229.851
231.836
233.673
235.357
236.888
238.263
239.483
240.548
241.456
242.21
242.81
243.259
243.558
243.711
243.719
243.588
243.319
242.917
242.387
241.733
240.96
240.075
239.08
237.982
236.785
235.495
234.118
232.66
231.126
229.521
227.849
226.117
224.33
222.493
220.61
218.684
216.723
214.729
212.703
210.65
208.575
206.467
204.347
202.211
200.055
197.888
195.703
193.51
191.305
189.1
186.911
184.756
182.64
180.534
178.416
176.275
174.102
171.893
169.649
167.375
165.086
162.815
160.619
158.611
156.924
155.922
7.54028
3.21204
2.49992
2.35249
2.38421
2.50377
2.67954
2.89706
3.14804
3.4269
3.72958
4.05309
4.39542
4.7553
5.13212
5.52574
5.93642
6.36466
6.81113
7.27667
7.76217
8.26861
8.797
9.34838
9.92382
10.5244
11.1512
11.8054
12.4881
13.2005
13.9436
14.7186
15.5268
16.3693
17.2473
18.162
19.1146
20.1064
21.1386
22.2125
23.3295
24.4909
25.6981
26.9525
28.2555
29.6087
31.0135
32.4714
33.9839
35.5525
37.1786
38.8639
40.6096
42.4174
44.2887
46.2247
48.227
50.2968
52.4354
54.6439
56.9236
59.2753
61.7001
64.1987
66.7719
69.4202
72.144
74.9435
77.819
80.7703
83.7971
86.899
90.0753
93.3252
96.6477
100.041
103.505
107.037
110.635
114.297
118.022
121.806
125.647
129.542
133.489
137.484
141.524
145.604
149.722
153.872
158.05
162.251
166.47
170.699
174.932
179.164
183.385
187.588
191.759
195.88
199.938
203.924
207.827
211.64
215.355
218.963
222.458
225.832
229.079
232.192
235.166
237.993
240.669
243.189
245.548
247.742
249.768
251.623
253.304
254.809
256.137
257.289
258.263
259.061
259.684
260.133
260.411
260.521
260.465
260.248
259.872
259.343
258.665
257.843
256.884
255.792
254.572
253.232
251.775
250.208
248.538
246.771
244.914
242.971
240.948
238.851
236.687
234.464
232.183
229.847
227.468
225.049
222.586
220.092
217.578
215.035
212.475
209.899
207.309
204.71
202.101
199.489
196.876
194.268
191.677
189.111
186.57
184.037
181.502
178.958
176.4
173.827
171.243
168.656
166.084
163.559
161.135
158.907
156.957
155.493
9.53204
3.85419
2.89667
2.66538
2.65683
2.75204
2.91005
3.11276
3.35044
3.61707
3.90852
4.22189
4.55516
4.90704
5.27686
5.66439
6.06979
6.49347
6.93606
7.39832
7.88114
8.38545
8.91225
9.46258
10.0375
10.6381
11.2655
11.9208
12.6052
13.3198
14.0658
14.8444
15.6568
16.5043
17.3882
18.3097
19.2702
20.2711
21.3137
22.3996
23.5302
24.707
25.9317
27.2058
28.5311
29.9093
31.342
32.8311
34.3783
35.9854
37.6543
39.3868
41.1848
43.05
44.9842
46.9894
49.0673
51.2195
53.4478
55.7538
58.139
60.605
63.153
65.7844
68.5002
71.3014
74.1888
77.1631
80.2248
83.3741
86.611
89.9355
93.347
96.8451
100.429
104.097
107.848
111.681
115.594
119.585
123.651
127.79
131.999
136.276
140.618
145.02
149.48
153.993
158.555
163.161
167.806
172.484
177.189
181.912
186.647
191.385
196.116
200.83
205.501
210.115
214.66
219.125
223.5
227.773
231.937
235.983
239.901
243.683
247.323
250.811
254.141
257.306
260.3
263.117
265.75
268.197
270.451
272.509
274.369
276.028
277.485
278.739
279.789
280.637
281.283
281.729
281.978
282.033
281.896
281.572
281.064
280.378
279.519
278.492
277.304
275.962
274.47
272.837
271.066
269.166
267.142
265.004
262.759
260.413
257.969
255.435
252.822
250.137
247.383
244.556
241.682
238.764
235.799
232.799
229.771
226.716
223.644
220.557
217.461
214.361
211.26
208.164
205.076
202.003
198.953
195.93
192.933
189.954
186.987
184.028
181.076
178.133
175.204
172.298
169.435
166.645
163.975
161.5
159.266
157.395
11.4531
4.4536
3.2528
2.9368
2.88665
2.95636
3.0958
3.28313
3.50707
3.76097
4.04052
4.34282
4.66587
5.0084
5.36969
5.74947
6.14782
6.56512
7.00193
7.45897
7.93709
8.43721
8.96033
9.50747
10.0797
10.6782
11.304
11.9583
12.6423
13.3572
14.1043
14.8848
15.7
16.5514
17.4402
18.3679
19.3361
20.3462
21.3998
22.4986
23.6443
24.8387
26.0835
27.3808
28.7323
30.1403
31.6066
33.1334
34.7229
36.3772
38.0986
39.8893
41.7517
43.6878
45.7002
47.7909
49.9623
52.2167
54.5562
56.9829
59.4989
62.1061
64.8065
67.6018
70.4936
73.4833
76.5722
79.7614
83.0517
86.4439
89.9383
93.5349
97.2338
101.035
104.936
108.938
113.039
117.237
121.53
125.917
130.395
134.961
139.612
144.345
149.158
154.045
159.003
164.029
169.116
174.259
179.453
184.691
189.965
195.266
200.585
205.911
211.234
216.532
221.778
226.959
232.063
237.076
241.987
246.785
251.46
256
260.396
264.638
268.718
272.627
276.356
279.897
283.244
286.388
289.324
292.047
294.55
296.829
298.881
300.704
302.295
303.654
304.779
305.672
306.334
306.766
306.972
306.953
306.714
306.259
305.593
304.72
303.647
302.38
300.925
299.291
297.485
295.512
293.38
291.096
288.666
286.103
283.414
280.606
277.685
274.648
271.524
268.316
265.028
261.663
258.237
254.757
251.228
247.657
244.056
240.428
236.782
233.125
229.465
225.806
222.156
218.521
214.905
211.316
207.759
204.24
200.757
197.307
193.887
190.497
187.138
183.813
180.528
177.295
174.131
171.064
168.134
165.396
162.871
160.637
13.2442
4.9996
3.56619
3.16761
3.07592
3.11967
3.24004
3.41161
3.62147
3.86226
4.12941
4.41993
4.73183
5.06384
5.41524
5.78575
6.1754
6.58453
7.01366
7.4635
7.93487
8.42867
8.94592
9.48765
10.055
10.649
11.271
11.922
12.6035
13.3166
14.0627
14.8432
15.6595
16.5131
17.4056
18.3385
19.3136
20.3325
21.397
22.5092
23.6709
24.8841
26.1511
27.474
28.8552
30.2969
31.8017
33.372
35.0105
36.7197
38.5024
40.3613
42.2992
44.3189
46.4232
48.6149
50.897
53.2721
55.743
58.3125
60.9831
63.7575
66.6381
69.6271
72.7267
75.9389
79.2654
82.7078
86.2674
89.9452
93.742
97.6582
101.694
105.849
110.122
114.514
119.022
123.645
128.38
133.226
138.18
143.238
148.398
153.656
159.008
164.451
169.978
175.586
181.269
187.021
192.834
198.702
204.615
210.563
216.535
222.518
228.497
234.432
240.308
246.108
251.82
257.429
262.922
268.286
273.51
278.581
283.488
288.22
292.768
297.121
301.269
305.204
308.918
312.402
315.65
318.655
321.41
323.91
326.152
328.133
329.851
331.304
332.492
333.415
334.075
334.473
334.612
334.496
334.128
333.513
332.657
331.565
330.244
328.7
326.94
324.974
322.811
320.457
317.919
315.206
312.318
309.281
306.1
302.781
299.332
295.758
292.077
288.296
284.424
280.466
276.437
272.345
268.198
264.007
259.781
255.529
251.26
246.985
242.71
238.446
234.199
229.979
225.79
221.642
217.539
213.488
209.489
205.542
201.648
197.808
194.025
190.304
186.652
183.079
179.603
176.249
173.045
170.036
167.22
164.655
14.8644
5.48561
3.8367
3.36007
3.22808
3.24603
3.34718
3.50275
3.69828
3.92569
4.18008
4.45832
4.7584
5.07904
5.41953
5.77956
6.15919
6.5587
6.97862
7.41962
7.88253
8.36827
8.87785
9.41233
9.97288
10.5607
11.1769
11.823
12.5002
13.2099
13.9536
14.7328
15.5491
16.4041
17.2996
18.2374
19.2194
20.2475
21.3239
22.4507
23.6303
24.865
26.1573
27.5097
28.9251
30.4062
31.9559
33.5772
35.2731
37.047
38.9019
40.8413
42.8685
44.9868
47.1999
49.511
51.9238
54.4415
57.0677
59.8056
62.6585
65.6297
68.7221
71.9387
75.2821
78.755
82.3595
86.0976
89.9712
93.9816
98.1298
102.417
106.842
111.406
116.109
120.948
125.924
131.033
136.274
141.644
147.139
152.757
158.492
164.341
170.3
176.364
182.526
188.783
195.127
201.551
208.047
214.606
221.218
227.871
234.553
241.247
247.915
254.527
261.067
267.519
273.868
280.099
286.196
292.146
297.935
303.549
308.977
314.207
319.226
324.023
328.589
332.914
336.987
340.802
344.35
347.623
350.613
353.316
355.728
357.844
359.664
361.186
362.409
363.334
363.962
364.295
364.335
364.087
363.556
362.746
361.663
360.315
358.708
356.846
354.739
352.401
349.84
347.063
344.078
340.895
337.521
333.972
330.258
326.387
322.369
318.213
313.933
309.538
305.04
300.448
295.774
291.029
286.225
281.372
276.482
271.566
266.636
261.702
256.776
251.867
246.986
242.142
237.344
232.601
227.92
223.306
218.765
214.298
209.908
205.599
201.375
197.243
193.209
189.285
185.485
181.831
178.345
175.057
171.955
169.082
16.2863
5.90782
4.06524
3.51696
3.34695
3.3399
3.42205
3.56163
3.74278
3.9567
4.19816
4.46388
4.75179
5.0606
5.38958
5.73844
6.10723
6.49624
6.90598
7.33714
7.79056
8.26717
8.76802
9.29423
9.84701
10.4276
11.0374
11.6777
12.3501
13.056
13.7971
14.5751
15.3917
16.2488
17.1485
18.0927
19.0836
20.1236
21.215
22.3604
23.5624
24.824
26.1478
27.5371
28.9951
30.5249
32.1302
33.8144
35.5812
37.4344
39.378
41.4159
43.5521
45.7908
48.1361
50.5922
53.1633
55.8534
58.6668
61.6073
64.679
67.8857
71.2311
74.7186
78.3516
82.1332
86.066
90.1525
94.3947
98.7945
103.353
108.071
112.949
117.987
123.184
128.538
134.049
139.714
145.531
151.494
157.602
163.848
170.228
176.737
183.37
190.121
196.984
203.951
211.016
218.17
225.404
232.708
240.068
247.472
254.903
262.332
269.705
277.008
284.223
291.336
298.327
305.18
311.878
318.405
324.748
330.892
336.823
342.529
347.996
353.212
358.167
362.85
367.25
371.361
375.172
378.676
381.862
384.727
387.266
389.476
391.355
392.902
394.116
394.998
395.549
395.771
395.668
395.243
394.503
393.454
392.101
390.453
388.516
386.298
383.809
381.061
378.063
374.824
371.354
367.664
363.764
359.666
355.383
350.925
346.303
341.529
336.616
331.575
326.418
321.159
315.809
310.382
304.89
299.346
293.763
288.156
282.536
276.916
271.31
265.73
260.188
254.694
249.26
243.896
238.61
233.412
228.306
223.299
218.395
213.6
208.92
204.361
199.933
195.645
191.511
187.547
183.769
180.199
176.814
173.653
17.4938
6.26448
4.25333
3.64125
3.4364
3.40578
3.46961
3.59357
3.76058
3.96121
4.18992
4.44326
4.71909
5.01611
5.33359
5.67124
6.02911
6.40751
6.80697
7.22821
7.67208
8.13958
8.6318
9.14995
9.69532
10.2693
10.8733
11.5089
12.1777
12.8814
13.6219
14.4011
15.2211
16.0839
16.9918
17.9472
18.9528
20.0111
21.1249
22.2973
23.5314
24.8304
26.1979
27.6375
29.1529
30.7481
32.4271
34.1943
36.054
38.0106
40.069
42.2337
44.5097
46.9019
49.4152
52.0546
54.8251
57.7315
60.7785
63.9709
67.3132
70.81
74.4656
78.284
82.269
86.4241
90.7525
95.2568
99.9393
104.802
109.846
115.072
120.48
126.07
131.841
137.791
143.917
150.218
156.689
163.327
170.124
177.075
184.174
191.415
198.791
206.294
213.918
221.654
229.494
237.428
245.444
253.53
261.672
269.853
278.051
286.192
294.26
302.239
310.111
317.86
325.468
332.91
340.171
347.236
354.088
360.713
367.097
373.224
379.082
384.659
389.941
394.919
399.583
403.923
407.934
411.603
414.918
417.877
420.477
422.714
424.586
426.093
427.234
428.01
428.423
428.476
428.171
427.516
426.514
425.174
423.501
421.504
419.191
416.572
413.656
410.455
406.978
403.238
399.246
395.012
390.548
385.868
380.984
375.908
370.653
365.233
359.66
353.948
348.11
342.161
336.115
329.985
323.787
317.535
311.243
304.928
298.603
292.283
285.982
279.715
273.496
267.338
261.252
255.252
249.348
243.55
237.867
232.306
226.875
221.582
216.433
211.438
206.604
201.942
197.463
193.181
189.106
185.251
181.589
178.156
18.4821
6.55556
4.40283
3.73591
3.5002
3.44809
3.49485
3.60408
3.75769
3.94574
4.1624
4.4041
4.66864
4.95468
5.2615
5.58883
5.93673
6.30556
6.69588
7.10846
7.54423
8.00424
8.48971
9.00194
9.54235
10.1125
10.714
11.3485
12.0181
12.7246
13.4701
14.2569
15.0874
15.964
16.8895
17.8667
18.8985
19.9881
21.139
22.3546
23.6386
24.995
26.428
27.9418
29.541
31.2302
33.0143
34.8984
36.8877
38.9875
41.2034
43.541
46.0061
48.6044
51.3419
54.2243
57.2574
60.447
63.798
67.3159
71.0058
74.8728
78.9217
83.1568
87.5825
92.2022
97.0193
102.037
107.256
112.679
118.307
124.141
130.178
136.42
142.863
149.506
156.344
163.375
170.593
177.993
185.567
193.305
201.2
209.244
217.428
225.744
234.184
242.736
251.39
260.136
268.959
277.844
286.775
295.73
304.621
313.434
322.149
330.749
339.217
347.538
355.695
363.651
371.395
378.912
386.186
393.202
399.944
406.398
412.55
418.388
423.899
429.072
433.897
438.365
442.469
446.198
449.545
452.504
455.073
457.247
459.026
460.408
461.394
461.984
462.181
461.99
461.413
460.457
459.128
457.432
455.379
452.975
450.232
447.158
443.765
440.064
436.066
431.783
427.228
422.414
417.353
412.06
406.546
400.826
394.915
388.827
382.576
376.176
369.643
362.992
356.239
349.399
342.488
335.522
328.518
321.492
314.46
307.437
300.442
293.488
286.591
279.766
273.028
266.39
259.865
253.466
247.202
241.085
235.123
229.327
223.705
218.268
213.023
207.981
203.152
198.546
194.171
190.032
186.1
182.408
19.2578
6.78277
4.51597
3.80395
3.54214
3.47138
3.50308
3.59923
3.74096
3.91795
4.12416
4.35593
4.611
4.88803
5.18634
5.50567
5.84615
6.20819
6.59243
6.99973
7.43115
7.88787
8.37125
8.88279
9.42412
9.997
10.6033
11.2452
11.9248
12.6444
13.4066
14.214
15.0695
15.9762
16.9372
17.9561
19.0364
20.1819
21.3968
22.6853
24.0518
25.5013
27.0386
28.6691
30.398
32.2311
34.1742
36.2332
38.4145
40.7243
43.1691
45.7555
48.4903
51.3801
54.4318
57.6522
61.0481
64.6258
68.3901
72.3463
76.5002
80.8572
85.4222
90.1998
95.1939
100.408
105.845
111.507
117.395
123.511
129.853
136.423
143.217
150.234
157.47
164.921
172.582
180.448
188.514
196.775
205.217
213.822
222.583
231.492
240.539
249.711
258.999
268.389
277.87
287.426
297.044
306.705
316.377
325.968
335.466
344.853
354.11
363.219
372.163
380.925
389.484
397.818
405.91
413.741
421.297
428.562
435.52
442.157
448.46
454.416
460.013
465.24
470.088
474.547
478.611
482.271
485.52
488.354
490.768
492.761
494.33
495.476
496.199
496.502
496.386
495.857
494.918
493.577
491.839
489.713
487.206
484.329
481.091
477.503
473.578
469.326
464.759
459.891
454.735
449.306
443.616
437.68
431.513
425.129
418.544
411.773
404.832
397.737
390.504
383.149
375.69
368.143
360.524
352.853
345.145
337.419
329.692
321.981
314.304
306.678
299.119
291.643
284.267
277.005
269.873
262.884
256.052
249.387
242.904
236.611
230.522
224.645
218.992
213.572
208.393
203.465
198.79
194.373
190.18
186.243
19.842
6.94973
4.59547
3.84867
3.56642
3.48088
3.50065
3.58656
3.71922
3.88805
4.08688
4.31202
4.56122
4.83318
5.12725
5.44327
5.78147
6.14237
6.52677
6.93573
7.37048
7.83246
8.32329
8.84475
9.3988
9.9876
10.6135
11.279
11.9867
12.7397
13.5411
14.3941
15.3024
16.2698
17.3005
18.3987
19.569
20.8161
22.145
23.5609
25.0695
26.6768
28.3889
30.2121
32.1531
34.2185
36.4155
38.7511
41.2325
43.8673
46.6628
49.6266
52.7662
56.0892
59.6031
63.3154
67.2343
71.3692
75.7184
80.2877
85.0836
90.1112
95.375
100.879
106.625
112.617
118.856
125.342
132.076
139.056
146.28
153.747
161.451
169.39
177.556
185.944
194.546
203.353
212.358
221.549
230.914
240.437
250.105
259.907
269.827
279.854
289.973
300.168
310.426
320.727
331.06
341.358
351.548
361.62
371.558
381.345
390.964
400.398
409.628
418.637
427.408
435.92
444.156
452.099
459.733
467.043
474.014
480.633
486.887
492.765
498.254
503.345
508.029
512.299
516.146
519.565
522.55
525.096
527.201
528.862
530.078
530.85
531.18
531.069
530.521
529.541
528.135
526.308
524.068
521.422
518.381
514.954
511.152
506.986
502.468
497.611
492.428
486.932
481.137
475.058
468.711
462.109
455.269
448.206
440.936
433.477
425.844
418.055
410.127
402.077
393.923
385.684
377.376
369.02
360.632
352.232
343.838
335.467
327.14
318.872
310.683
302.589
294.607
286.754
279.045
271.497
264.123
256.938
249.956
243.189
236.651
230.352
224.304
218.517
213
207.758
202.794
198.108
193.667
189.502
20.2758
7.06277
4.64502
3.87445
3.57878
3.48399
3.49679
3.57732
3.7059
3.87186
4.06902
4.29372
4.54379
4.81806
5.11603
5.4377
5.78351
6.15423
6.55095
6.97506
7.42821
7.9123
8.42938
8.98169
9.57177
10.2024
10.8768
11.5981
12.3699
13.1961
14.0809
15.0285
16.0438
17.1319
18.2983
19.5489
20.8904
22.3273
23.8663
25.5143
27.2787
29.167
31.1866
33.3456
35.6518
38.1133
40.7383
43.535
46.5117
49.6765
53.0376
56.6029
60.3802
64.3771
68.6008
73.0582
77.7558
82.6993
87.8918
93.3368
99.0381
104.999
111.221
117.706
124.456
131.468
138.743
146.278
154.071
162.116
170.411
178.948
187.722
196.724
205.946
215.379
225.011
234.831
244.827
254.984
265.288
275.722
286.27
296.914
307.64
318.428
329.266
340.132
351.015
361.879
372.623
383.224
393.673
403.956
414.06
423.97
433.669
443.141
452.371
461.342
470.037
478.44
486.534
494.304
501.734
508.812
515.523
521.856
527.798
533.34
538.471
543.183
547.467
551.318
554.728
557.693
560.208
562.27
563.876
565.025
565.717
565.952
565.734
565.064
563.947
562.388
560.393
557.968
555.122
551.861
548.197
544.139
539.698
534.887
529.717
524.202
518.355
512.19
505.722
498.966
491.938
484.653
477.128
469.379
461.424
453.279
444.962
436.491
427.884
419.16
410.337
401.434
392.469
383.463
374.433
365.4
356.382
347.398
338.468
329.608
320.839
312.177
303.641
295.247
287.013
278.954
271.087
263.427
255.989
248.787
241.836
235.148
228.734
222.606
216.773
211.239
206.004
201.069
196.4
192.028
20.6284
7.13263
4.67095
3.88881
3.58917
3.49363
3.50781
3.59159
3.72525
3.89821
4.10444
4.34049
4.60444
4.8954
5.21321
5.55831
5.93149
6.33401
6.76758
7.23429
7.73666
8.27766
8.86027
9.48702
10.1618
10.8888
11.6724
12.5175
13.4291
14.4128
15.4746
16.6206
17.8577
19.1931
20.6342
22.1891
23.866
25.6729
27.6184
29.7115
31.9613
34.3771
36.9682
39.7437
42.7127
45.8843
49.2672
52.8697
56.6999
60.7655
65.0737
69.6314
74.4446
79.5188
84.8587
90.4684
96.3508
102.508
108.941
115.648
122.631
129.887
137.414
145.211
153.272
161.594
170.17
178.995
188.061
197.361
206.887
216.628
226.575
236.717
247.041
257.535
268.185
278.976
289.893
300.919
312.036
323.225
334.467
345.741
357.033
368.31
379.578
390.793
401.861
412.735
423.42
433.912
444.201
454.277
464.13
473.745
483.109
492.21
501.032
509.561
517.785
525.687
533.255
540.475
547.334
553.819
559.921
565.627
570.928
575.814
580.279
584.314
587.912
591.069
593.779
596.038
597.844
599.193
600.084
600.516
600.49
600.007
599.07
597.681
595.846
593.569
590.857
587.716
584.154
580.18
575.802
571.032
565.881
560.361
554.484
548.263
541.712
534.846
527.679
520.226
512.505
504.531
496.32
487.891
479.26
470.445
461.466
452.34
443.085
433.722
424.269
414.746
405.172
395.567
385.95
376.342
366.761
357.227
347.759
338.375
329.095
319.936
310.916
302.053
293.364
284.865
276.574
268.505
260.674
253.098
245.79
238.764
232.032
225.607
219.495
213.704
208.232
203.078
198.21
193.661
21.0393
7.1796
4.68615
3.90767
3.61867
3.53705
3.56801
3.67156
3.82832
4.02813
4.26545
4.53737
4.8426
5.18095
5.55312
5.96086
6.40552
6.8892
7.41513
7.987
8.60897
9.28566
10.0221
10.8237
11.6967
12.6476
13.6838
14.8131
16.0439
17.3849
18.8456
20.4357
22.1657
24.0463
26.0885
28.3035
30.7027
33.2972
36.098
39.116
42.3616
45.8448
49.5748
53.5604
57.8091
62.3279
67.1224
72.1976
77.5573
83.2043
89.1406
95.3671
101.884
108.689
115.781
123.157
130.811
138.739
146.934
155.388
164.096
173.049
182.238
191.656
201.294
211.14
221.184
231.417
241.827
252.404
263.135
274.009
285.012
296.133
307.356
318.668
330.052
341.493
352.974
364.472
375.97
387.455
398.891
410.264
421.577
432.747
443.69
454.383
464.844
475.071
485.064
494.821
504.335
513.601
522.608