/*--------------------------------*- C++ -*----------------------------------*\
| =========                 |                                                 |
| \\      /  F ield         | OpenFOAM: The Open Source CFD Toolbox           |
|  \\    /   O peration     | Version:  2.2.x                                 |
|   \\  /    A nd           | Web:      www.OpenFOAM.org                      |
|    \\/     M anipulation  |                                                 |
\*---------------------------------------------------------------------------*/
FoamFile
{
    version     2.0;
    format      ascii;
    class       volScalarField;
    location    "650";
    object      k;
}
// * * * * * * * * * * * * * * * * * * * * * * * * * * * * * * * * * * * * * //

dimensions      [0 2 -2 0 0 0 0];

internalField   nonuniform List<scalar> 
12225
(
0.773254
1.11727
1.35409
1.50336
1.59083
1.63716
1.65703
1.66036
1.65367
1.64113
1.62539
1.60809
1.59027
1.57256
1.55534
1.5388
1.52279
1.50873
0.492803
0.515897
0.520062
0.519337
0.515967
0.511065
0.505593
0.500234
0.495408
0.491346
0.488152
0.485844
0.484396
0.483753
0.483863
0.484761
0.487054
0.490695
0.412017
0.424095
0.421858
0.414167
0.404224
0.393409
0.38246
0.371808
0.361712
0.352321
0.343712
0.335915
0.328924
0.322712
0.317244
0.312486
0.308404
0.304812
0.381869
0.385949
0.386337
0.383939
0.379748
0.374467
0.368564
0.362354
0.35605
0.349796
0.343693
0.337809
0.332186
0.326852
0.32182
0.317094
0.312666
0.308534
0.375243
0.375519
0.374935
0.373413
0.371106
0.368205
0.364883
0.361285
0.357522
0.353679
0.34982
0.345993
0.342236
0.338573
0.335023
0.331601
0.328312
0.325182
0.373469
0.372204
0.370886
0.369331
0.367504
0.365429
0.363154
0.360729
0.358201
0.355611
0.352991
0.350369
0.347768
0.345203
0.34269
0.340238
0.337857
0.335572
0.372982
0.371101
0.36935
0.367626
0.365876
0.364075
0.362218
0.360314
0.358375
0.356415
0.354448
0.352486
0.350541
0.348621
0.346735
0.344889
0.34309
0.341359
0.372867
0.370792
0.36886
0.367023
0.365244
0.363498
0.36177
0.360052
0.358343
0.356647
0.354967
0.353307
0.351672
0.350067
0.348494
0.346959
0.345463
0.344027
0.372829
0.37068
0.368664
0.366759
0.364944
0.363201
0.361515
0.359875
0.358275
0.356713
0.355185
0.353691
0.352233
0.350811
0.349425
0.348076
0.346768
0.345514
0.372814
0.370635
0.368578
0.366633
0.364788
0.363032
0.361354
0.359745
0.358197
0.356704
0.355263
0.353869
0.352521
0.351216
0.349954
0.348733
0.347554
0.346429
0.372807
0.370616
0.368542
0.366578
0.364715
0.362946
0.361263
0.35966
0.358129
0.356665
0.355263
0.353919
0.352629
0.35139
0.3502
0.349055
0.347956
0.346912
0.372803
0.370607
0.368526
0.366553
0.36468
0.362903
0.361214
0.359608
0.358079
0.356623
0.355234
0.353908
0.352642
0.351432
0.350275
0.349167
0.348108
0.347106
0.3728
0.370601
0.368516
0.366539
0.364662
0.36288
0.361186
0.359577
0.358046
0.356588
0.355201
0.353879
0.352618
0.351416
0.35027
0.349175
0.34813
0.347145
0.372797
0.370597
0.36851
0.36653
0.36465
0.362865
0.361168
0.359556
0.358022
0.356562
0.355172
0.353849
0.352588
0.351386
0.35024
0.349147
0.348105
0.347123
0.372796
0.370594
0.368505
0.366523
0.364641
0.362854
0.361155
0.35954
0.358004
0.356542
0.35515
0.353825
0.352561
0.351358
0.35021
0.349115
0.348072
0.347089
0.372795
0.370592
0.368502
0.366518
0.364635
0.362846
0.361146
0.359529
0.357991
0.356527
0.355133
0.353805
0.35254
0.351334
0.350185
0.349088
0.348043
0.347058
0.372794
0.370591
0.3685
0.366515
0.364631
0.362841
0.361139
0.359521
0.357981
0.356516
0.355121
0.353792
0.352525
0.351317
0.350166
0.349068
0.348021
0.347035
0.372794
0.37059
0.368499
0.366514
0.364629
0.362838
0.361136
0.359517
0.357977
0.356511
0.355114
0.353784
0.352517
0.351308
0.350156
0.349056
0.348009
0.347022
0.372794
0.37059
0.3685
0.366515
0.36463
0.362839
0.361136
0.359517
0.357977
0.35651
0.355114
0.353783
0.352516
0.351307
0.350154
0.349054
0.348006
0.34702
0.372795
0.370591
0.368501
0.366517
0.364632
0.362842
0.36114
0.359521
0.357981
0.356515
0.355119
0.353789
0.352522
0.351313
0.350161
0.349061
0.348014
0.347027
0.372795
0.370593
0.368504
0.36652
0.364637
0.362848
0.361148
0.359531
0.357993
0.356529
0.355135
0.353807
0.352541
0.351334
0.350182
0.349084
0.348036
0.347049
0.372797
0.370596
0.368509
0.36653
0.364652
0.362869
0.361175
0.359565
0.358034
0.356576
0.355187
0.353863
0.352599
0.351393
0.35024
0.349139
0.348086
0.347093
0.3728
0.370606
0.368532
0.36657
0.364713
0.362953
0.361282
0.359692
0.358177
0.35673
0.355346
0.354021
0.35275
0.351529
0.350356
0.349229
0.348146
0.347118
0.372815
0.370662
0.368649
0.366761
0.36498
0.363289
0.361672
0.360118
0.358617
0.357163
0.355751
0.35438
0.353046
0.351748
0.350487
0.349261
0.348072
0.346932
0.372911
0.370959
0.369194
0.367544
0.365953
0.364384
0.362817
0.361246
0.359669
0.358089
0.356513
0.354945
0.353391
0.351856
0.350345
0.348861
0.347409
0.346007
0.373469
0.372366
0.371364
0.370237
0.368904
0.367357
0.365627
0.363755
0.361779
0.359733
0.357646
0.35554
0.353433
0.35134
0.349272
0.347238
0.345246
0.343317
0.376461
0.378228
0.378834
0.378173
0.37655
0.374272
0.371563
0.368577
0.365422
0.362172
0.358881
0.355588
0.352324
0.349109
0.345961
0.342892
0.339912
0.337043
0.392606
0.401341
0.402165
0.399516
0.395305
0.390342
0.385014
0.379525
0.373995
0.368504
0.363107
0.357848
0.352757
0.347856
0.343161
0.338679
0.334413
0.330373
0.438298
0.449783
0.450807
0.449577
0.447828
0.44585
0.443727
0.441504
0.439219
0.436908
0.434611
0.432364
0.430197
0.428134
0.426192
0.424376
0.422672
0.421024
0.544749
0.705345
0.836387
0.946126
1.04199
1.12366
1.19167
1.24712
1.29142
1.32607
1.35254
1.37218
1.38619
1.3956
1.40131
1.40406
1.40446
1.40299
0.0045716
0.00706433
0.00886601
0.0103303
0.011843
0.0133853
0.0152689
0.0175514
0.0201051
0.0228807
0.025823
0.0288949
0.0320736
0.0353442
0.0386962
0.0421223
0.0456172
0.0491772
0.0527999
0.056484
0.0602291
0.0640358
0.0679051
0.0718388
0.0758391
0.0799086
0.0840505
0.0882683
0.0925664
0.0969492
0.101422
0.105993
0.110667
0.115456
0.12037
0.125424
0.130637
0.136033
0.141642
0.147505
0.15356
0.159772
0.166142
0.172674
0.17937
0.186235
0.193269
0.200476
0.207858
0.215416
0.223152
0.231067
0.239163
0.247438
0.255895
0.264533
0.27335
0.282348
0.291524
0.300878
0.310407
0.320108
0.329981
0.34002
0.350223
0.360586
0.371105
0.381774
0.392589
0.403543
0.414631
0.425846
0.437181
0.448627
0.460177
0.471822
0.483552
0.495357
0.507227
0.51915
0.531114
0.543107
0.555116
0.567126
0.579122
0.591088
0.603009
0.614867
0.626645
0.638323
0.649885
0.661312
0.672585
0.683687
0.694604
0.705325
0.715843
0.72616
0.736293
0.746276
0.756117
0.765617
0.77477
0.783567
0.791998
0.800054
0.807727
0.815008
0.821889
0.828363
0.834425
0.840068
0.84529
0.850087
0.854456
0.858397
0.86191
0.864996
0.867657
0.869897
0.871722
0.873137
0.874148
0.874764
0.874992
0.874843
0.874326
0.873451
0.872231
0.870677
0.868804
0.866623
0.864149
0.861397
0.858381
0.855112
0.851605
0.847876
0.843938
0.839808
0.835499
0.831024
0.826395
0.821628
0.816738
0.811737
0.806636
0.801445
0.796179
0.790849
0.785465
0.780028
0.774554
0.769047
0.763501
0.757939
0.752352
0.746727
0.741082
0.735373
0.729637
0.723847
0.71788
0.711953
0.706179
0.701362
0.700714
0.700828
0.70096
0.700979
0.700815
0.700404
0.69967
0.69853
0.696871
0.694496
0.691132
0.685933
0.6778
0.65949
0.00981922
0.0161138
0.0218513
0.0265
0.0304433
0.0341827
0.038009
0.042075
0.0464081
0.0509811
0.0557609
0.0607243
0.0658575
0.0711526
0.0766049
0.0822114
0.0879704
0.0938812
0.0999437
0.106159
0.11253
0.119057
0.125746
0.132599
0.13962
0.146816
0.154191
0.16175
0.169501
0.177449
0.185602
0.193966
0.202551
0.211363
0.220411
0.229705
0.239252
0.249061
0.259138
0.269488
0.280113
0.291018
0.302211
0.313699
0.325489
0.337587
0.350001
0.362735
0.375795
0.389185
0.402909
0.416972
0.431378
0.446128
0.461226
0.476673
0.492472
0.508622
0.525124
0.541978
0.559183
0.576738
0.594639
0.612884
0.631469
0.650389
0.66964
0.689215
0.709108
0.72931
0.749815
0.770611
0.79169
0.813041
0.834651
0.856508
0.878598
0.900906
0.923417
0.946114
0.96898
0.991995
1.01514
1.03839
1.06173
1.08513
1.10856
1.132
1.15541
1.17878
1.20205
1.22521
1.24822
1.27104
1.29363
1.31597
1.33802
1.35975
1.38113
1.40215
1.42257
1.44245
1.4618
1.48059
1.4988
1.51641
1.5334
1.54974
1.56543
1.58043
1.59473
1.60833
1.62119
1.63332
1.6447
1.65533
1.6652
1.67429
1.68263
1.6902
1.69701
1.70306
1.70837
1.71294
1.71678
1.71992
1.72236
1.72412
1.72523
1.72569
1.72554
1.7248
1.7235
1.72165
1.7193
1.71645
1.71316
1.70943
1.7053
1.7008
1.69597
1.69083
1.68541
1.67973
1.67384
1.66776
1.66151
1.65512
1.64862
1.64203
1.63538
1.62869
1.62197
1.61524
1.60851
1.60178
1.59507
1.58835
1.58163
1.57488
1.56805
1.56119
1.55402
1.54678
1.53957
1.53213
1.52523
1.51821
1.51089
1.50318
1.49499
1.48623
1.47682
1.46666
1.45567
1.44375
1.43081
1.4168
1.4013
1.38404
0.0143919
0.0267182
0.0349661
0.0411386
0.0465372
0.0517072
0.0569421
0.0623925
0.0681101
0.0740926
0.0803198
0.0867717
0.0934341
0.100298
0.107358
0.114613
0.122061
0.129702
0.137539
0.145574
0.15381
0.162251
0.170902
0.179768
0.188855
0.198171
0.20772
0.217512
0.227553
0.237852
0.248416
0.259255
0.270377
0.281792
0.293507
0.305533
0.317878
0.330549
0.343555
0.356903
0.370599
0.384654
0.399074
0.413871
0.42905
0.444622
0.460593
0.47697
0.493759
0.510967
0.528598
0.546658
0.565151
0.584081
0.603451
0.623263
0.643519
0.66422
0.685367
0.70696
0.728996
0.751474
0.774391
0.797743
0.821525
0.845731
0.870354
0.895386
0.920819
0.946643
0.972847
0.999418
1.02634
1.05361
1.0812
1.1091
1.13729
1.16575
1.19447
1.22341
1.25257
1.28191
1.31141
1.34104
1.37079
1.40061
1.43047
1.46035
1.49021
1.52001
1.54972
1.57929
1.60868
1.63786
1.66677
1.69537
1.72363
1.75149
1.77891
1.80581
1.83205
1.85763
1.88253
1.90674
1.93021
1.95293
1.97485
1.99596
2.01622
2.03562
2.05412
2.07171
2.08837
2.10408
2.11883
2.1326
2.14539
2.15718
2.16798
2.17778
2.18659
2.19441
2.20125
2.20713
2.21204
2.21602
2.21908
2.22124
2.22252
2.22295
2.22255
2.22136
2.21941
2.21672
2.21335
2.20931
2.20464
2.19939
2.19358
2.18726
2.18046
2.17324
2.16561
2.15762
2.14931
2.14073
2.1319
2.12286
2.11364
2.10428
2.09482
2.08528
2.07567
2.06604
2.05639
2.04673
2.03708
2.02742
2.01773
2.00802
1.99816
1.98833
1.97826
1.96811
1.95789
1.94754
1.93724
1.92667
1.91572
1.9043
1.89233
1.87973
1.86641
1.85231
1.83738
1.82162
1.80509
1.78812
1.77082
1.7549
0.0183457
0.0363982
0.0468349
0.054565
0.0612466
0.0675551
0.0738411
0.0802906
0.086989
0.0939622
0.101207
0.108711
0.116459
0.124443
0.132655
0.141092
0.149753
0.158639
0.167751
0.177093
0.18667
0.196487
0.206549
0.216864
0.227437
0.238278
0.249393
0.260791
0.272481
0.284473
0.296774
0.309396
0.322346
0.335636
0.349276
0.363273
0.377639
0.392383
0.407513
0.423039
0.43897
0.455317
0.472088
0.489295
0.506945
0.52505
0.543616
0.562652
0.582167
0.602166
0.622657
0.643646
0.665137
0.687137
0.709648
0.732675
0.756219
0.780283
0.804868
0.829973
0.855597
0.88174
0.908397
0.935564
0.963237
0.991408
1.02007
1.04922
1.07883
1.10891
1.13944
1.1704
1.20178
1.23356
1.26573
1.29826
1.33113
1.36433
1.39783
1.43161
1.46563
1.49988
1.53433
1.56894
1.60369
1.63853
1.67345
1.7084
1.74334
1.77824
1.81304
1.84771
1.8822
1.91646
1.95044
1.98409
2.01735
2.05017
2.08251
2.11417
2.14513
2.17534
2.20478
2.2334
2.26116
2.28804
2.31399
2.33898
2.36299
2.38596
2.40789
2.42873
2.44847
2.46709
2.48456
2.50086
2.51599
2.52993
2.54268
2.55423
2.56459
2.57375
2.58172
2.58853
2.59417
2.59867
2.60205
2.60432
2.60553
2.60568
2.60482
2.60297
2.60018
2.59649
2.59192
2.58653
2.58035
2.57343
2.5658
2.55752
2.54863
2.53919
2.52923
2.5188
2.50794
2.49671
2.48515
2.47331
2.46122
2.44893
2.43648
2.42392
2.41125
2.39853
2.38578
2.37298
2.3602
2.34739
2.33455
2.32175
2.30888
2.29603
2.28304
2.26999
2.25688
2.24368
2.23036
2.21676
2.20276
2.18831
2.17332
2.15772
2.14144
2.12444
2.10673
2.08838
2.06958
2.05082
2.03239
2.01592
0.0237001
0.0450041
0.0574714
0.0666476
0.0744895
0.0817846
0.0889396
0.0961799
0.103626
0.111332
0.119317
0.127581
0.136115
0.144913
0.153967
0.163273
0.17283
0.182639
0.192702
0.203022
0.213606
0.224458
0.235586
0.246996
0.258698
0.270698
0.283007
0.295632
0.308585
0.321874
0.33551
0.349502
0.363863
0.378601
0.393728
0.409254
0.42519
0.441547
0.458336
0.475566
0.49325
0.511397
0.53002
0.549129
0.568735
0.588849
0.60948
0.630639
0.652334
0.674575
0.697368
0.720723
0.744646
0.769143
0.79422
0.819881
0.84613
0.872971
0.900405
0.928434
0.957058
0.986275
1.01608
1.04648
1.07746
1.10901
1.14113
1.17381
1.20704
1.24081
1.27509
1.30989
1.34517
1.38093
1.41714
1.45378
1.49083
1.52826
1.56605
1.60416
1.64258
1.68128
1.72021
1.75935
1.79867
1.83812
1.87768
1.9173
1.95694
1.99655
2.0361
2.07552
2.11478
2.1538
2.19254
2.23093
2.26891
2.30642
2.34337
2.37958
2.415
2.4496
2.48332
2.51613
2.54797
2.5788
2.60858
2.63727
2.66482
2.69121
2.71639
2.74033
2.763
2.78438
2.80443
2.82314
2.84048
2.85645
2.87103
2.88421
2.896
2.90639
2.91539
2.92301
2.92927
2.93418
2.93776
2.94004
2.94104
2.94079
2.93933
2.9367
2.93293
2.92806
2.92215
2.91524
2.90737
2.8986
2.88896
2.87852
2.86733
2.85544
2.84292
2.8298
2.81614
2.802
2.78744
2.77251
2.75726
2.74173
2.72599
2.71009
2.69403
2.67789
2.66172
2.64544
2.62921
2.61302
2.59684
2.58072
2.56462
2.54855
2.53247
2.51639
2.50029
2.48416
2.46792
2.45142
2.4346
2.41738
2.3997
2.38149
2.36271
2.34335
2.32343
2.3031
2.28261
2.26249
2.24301
2.22537
0.0290119
0.052552
0.0667706
0.0772344
0.0861181
0.0942923
0.102206
0.110116
0.118169
0.126449
0.134995
0.143822
0.152933
0.162325
0.171995
0.18194
0.192159
0.202654
0.213426
0.224481
0.235823
0.247459
0.259397
0.271643
0.284208
0.2971
0.310328
0.323903
0.337834
0.352132
0.366809
0.381874
0.39734
0.413217
0.429519
0.446255
0.463439
0.481083
0.499197
0.517796
0.536891
0.556495
0.57662
0.59728
0.618486
0.64025
0.662585
0.685503
0.709014
0.733129
0.757858
0.783211
0.809196
0.835823
0.863097
0.891027
0.919618
0.948875
0.978801
1.0094
1.04067
1.07262
1.10523
1.13852
1.17247
1.20709
1.24235
1.27826
1.31481
1.35197
1.38974
1.42809
1.46702
1.5065
1.54651
1.58703
1.62802
1.66947
1.71135
1.75362
1.79625
1.83922
1.88248
1.926
1.96974
2.01367
2.05775
2.10192
2.14616
2.1904
2.2346
2.27871
2.32266
2.36639
2.40983
2.45293
2.4956
2.53777
2.57927
2.61998
2.65983
2.69878
2.73676
2.77372
2.80961
2.84437
2.87796
2.91033
2.94143
2.97121
2.99964
3.02667
3.05226
3.07639
3.09901
3.12011
3.13965
3.15762
3.17401
3.1888
3.20199
3.21357
3.22355
3.23194
3.23876
3.24401
3.24772
3.24992
3.25063
3.24988
3.24771
3.24417
3.23928
3.2331
3.22569
3.21709
3.20735
3.19653
3.18467
3.17185
3.15812
3.14354
3.12819
3.11212
3.09537
3.07803
3.06016
3.04183
3.02309
3.00398
2.9846
2.96501
2.94519
2.92526
2.90532
2.88533
2.86537
2.84548
2.82566
2.80596
2.78635
2.76686
2.74747
2.72818
2.70897
2.68982
2.67063
2.6513
2.63175
2.61193
2.59178
2.57125
2.55031
2.52894
2.50723
2.48533
2.46352
2.44229
2.42179
2.40285
0.0339244
0.0590066
0.0747054
0.0862868
0.0960863
0.105038
0.11362
0.122111
0.130678
0.139425
0.14841
0.157663
0.167199
0.177024
0.18714
0.197546
0.208245
0.219238
0.230528
0.242122
0.254023
0.266241
0.278781
0.291654
0.304868
0.318432
0.332358
0.346655
0.361335
0.376408
0.391887
0.407783
0.424109
0.440877
0.4581
0.475791
0.493964
0.512632
0.531808
0.551508
0.571744
0.592532
0.613886
0.63582
0.65835
0.681488
0.705249
0.729647
0.754696
0.780408
0.806797
0.833873
0.86165
0.890136
0.919342
0.949277
0.97995
1.01137
1.04353
1.07646
1.11014
1.14458
1.17978
1.21574
1.25246
1.28993
1.32814
1.36709
1.40677
1.44716
1.48825
1.53002
1.57245
1.61552
1.65921
1.70349
1.74834
1.79371
1.83959
1.88594
1.93273
1.97991
2.02744
2.0753
2.12344
2.17182
2.22039
2.26911
2.31793
2.36679
2.41565
2.46444
2.51309
2.56154
2.60972
2.65753
2.70491
2.75176
2.79782
2.84303
2.88732
2.93062
2.97287
3.01401
3.05396
3.09267
3.13009
3.16615
3.20081
3.23401
3.26569
3.29582
3.32435
3.35123
3.37644
3.39993
3.42168
3.44166
3.45985
3.47623
3.4908
3.50356
3.5145
3.52363
3.53096
3.5365
3.54029
3.54234
3.54268
3.54134
3.53837
3.5338
3.52768
3.52006
3.511
3.50056
3.48878
3.47573
3.46148
3.44607
3.42958
3.41209
3.39367
3.37439
3.35429
3.33346
3.31199
3.28996
3.26742
3.24438
3.22104
3.19745
3.17363
3.14966
3.12565
3.10161
3.07763
3.05375
3.03001
3.00646
2.9831
2.95997
2.93706
2.91438
2.89192
2.86965
2.84748
2.82533
2.80314
2.78085
2.75841
2.73577
2.71292
2.68987
2.66669
2.64354
2.62069
2.59856
2.57714
2.55701
0.0383466
0.0644182
0.0813383
0.0938632
0.104445
0.114066
0.123227
0.132217
0.141219
0.15035
0.159681
0.169258
0.179106
0.18924
0.199668
0.210395
0.221425
0.232763
0.244413
0.256381
0.268675
0.281302
0.294271
0.30759
0.32127
0.335321
0.349754
0.36458
0.37981
0.395458
0.411535
0.428055
0.445031
0.462476
0.480406
0.498834
0.517775
0.537246
0.55726
0.577835
0.598987
0.620731
0.643085
0.666065
0.689689
0.713972
0.738932
0.764585
0.790947
0.818034
0.845861
0.874443
0.903795
0.93393
0.964861
0.9966
1.02916
1.06254
1.09676
1.13183
1.16774
1.20451
1.24213
1.28062
1.31995
1.36014
1.40117
1.44304
1.48574
1.52926
1.57357
1.61867
1.66452
1.71112
1.75843
1.80642
1.85507
1.90434
1.9542
2.0046
2.05552
2.1069
2.15872
2.21091
2.26345
2.31628
2.36935
2.42262
2.47603
2.52953
2.58305
2.63653
2.6899
2.74309
2.796
2.84855
2.90065
2.95211
3.00273
3.05243
3.10114
3.14879
3.19529
3.24057
3.28457
3.32722
3.36845
3.40819
3.44639
3.48298
3.51791
3.55113
3.58258
3.61221
3.63998
3.66585
3.68979
3.71175
3.73172
3.74968
3.7656
3.7795
3.79136
3.80119
3.80899
3.81478
3.81859
3.82043
3.82033
3.81833
3.81447
3.80879
3.80134
3.79218
3.78135
3.76893
3.75498
3.73957
3.72275
3.70459
3.68516
3.66456
3.64288
3.62017
3.59651
3.57193
3.54662
3.52065
3.49408
3.46696
3.43944
3.41159
3.38349
3.35523
3.32689
3.29855
3.27029
3.24217
3.21427
3.18663
3.15931
3.13233
3.10573
3.07951
3.05366
3.02818
3.00298
2.97802
2.95322
2.92855
2.90396
2.8794
2.85488
2.83039
2.80601
2.7819
2.75826
2.73542
2.71325
2.69217
0.0422515
0.0688606
0.0867645
0.100066
0.111295
0.121474
0.131118
0.140526
0.149887
0.159326
0.168927
0.178743
0.188811
0.199154
0.209785
0.220716
0.231955
0.243508
0.255383
0.267587
0.280129
0.293018
0.306262
0.319871
0.333857
0.348231
0.363004
0.378188
0.393796
0.409841
0.426338
0.4433
0.460741
0.478678
0.497126
0.516101
0.53562
0.5557
0.576359
0.597616
0.619487
0.641993
0.665153
0.688986
0.713511
0.738748
0.764716
0.791436
0.818926
0.847206
0.876293
0.906207
0.936964
0.968581
1.00107
1.03446
1.06875
1.10396
1.14009
1.17717
1.21519
1.25417
1.2941
1.335
1.37685
1.41967
1.46344
1.50815
1.5538
1.60038
1.64787
1.69624
1.74549
1.79558
1.84648
1.89817
1.95061
2.00376
2.05759
2.11205
2.1671
2.2227
2.27879
2.33533
2.39227
2.44955
2.50712
2.56494
2.62294
2.68105
2.73923
2.79738
2.85545
2.91333
2.97095
3.0282
3.08496
3.14093
3.19601
3.25011
3.30316
3.35505
3.40572
3.45507
3.50303
3.54953
3.59448
3.63782
3.67948
3.71939
3.75749
3.79372
3.82801
3.86032
3.89059
3.91878
3.94484
3.96872
3.99041
4.00988
4.0271
4.04208
4.0548
4.06527
4.07349
4.07948
4.08324
4.08481
4.08421
4.08147
4.07665
4.06979
4.06093
4.05013
4.03745
4.02296
4.00674
3.98884
3.96934
3.94831
3.92579
3.90194
3.87685
3.85058
3.82321
3.79482
3.76554
3.73548
3.70471
3.67333
3.64145
3.60918
3.57661
3.54385
3.511
3.47816
3.44542
3.41289
3.38063
3.34874
3.31727
3.28629
3.25583
3.22593
3.19659
3.16781
3.13954
3.11175
3.08438
3.0574
3.03076
3.00444
2.97842
2.95271
2.92737
2.90252
2.87832
2.855
2.8323
2.81056
0.0456346
0.0724121
0.091087
0.105009
0.116757
0.127383
0.137414
0.147154
0.156796
0.166471
0.176268
0.18625
0.196458
0.206923
0.217666
0.228703
0.240045
0.251703
0.263687
0.276006
0.288671
0.30169
0.315076
0.328838
0.342988
0.35754
0.372505
0.387896
0.403729
0.420016
0.436774
0.454017
0.471763
0.490028
0.508829
0.528186
0.548116
0.56864
0.589777
0.611549
0.633975
0.657079
0.680881
0.705405
0.730673
0.756707
0.783531
0.811167
0.839639
0.868968
0.899177
0.930288
0.962321
0.995297
1.02924
1.06415
1.10007
1.137
1.17496
1.21396
1.25401
1.29512
1.3373
1.38054
1.42487
1.47026
1.51672
1.56425
1.61283
1.66244
1.71308
1.76473
1.81735
1.87092
1.92542
1.98081
2.03704
2.09409
2.15189
2.21042
2.26961
2.32942
2.38979
2.45067
2.51199
2.57371
2.63576
2.69809
2.76062
2.8233
2.88606
2.94881
3.01147
3.07396
3.13617
3.19799
3.25916
3.31947
3.37883
3.43716
3.49435
3.55032
3.60496
3.6582
3.70994
3.76009
3.8086
3.85536
3.90031
3.94337
3.98447
4.02355
4.06054
4.09538
4.12802
4.15838
4.18643
4.21212
4.23541
4.25628
4.2747
4.29066
4.30415
4.31517
4.32373
4.32982
4.33347
4.33469
4.33351
4.32998
4.32414
4.31603
4.30569
4.29319
4.27857
4.26194
4.24338
4.22294
4.2007
4.17674
4.15112
4.12399
4.09544
4.06555
4.03441
4.00212
3.9688
3.93457
3.89952
3.86377
3.82745
3.79065
3.75351
3.71615
3.67868
3.64123
3.60391
3.56683
3.53011
3.49384
3.45811
3.423
3.38858
3.35489
3.32197
3.28983
3.25845
3.22781
3.19788
3.16863
3.14004
3.11207
3.0847
3.05794
3.03183
3.00646
2.98191
2.95831
2.93534
2.91326
0.0485039
0.0751513
0.0944079
0.108811
0.120957
0.131924
0.142246
0.152232
0.162077
0.171914
0.181836
0.191912
0.202187
0.212699
0.223473
0.234529
0.245884
0.257551
0.269543
0.281871
0.294548
0.307584
0.320993
0.334786
0.348977
0.363579
0.378606
0.394072
0.409994
0.426387
0.443269
0.460655
0.478565
0.497018
0.516033
0.535632
0.555835
0.576664
0.598142
0.620293
0.643142
0.666712
0.691029
0.716119
0.742007
0.768721
0.796287
0.824732
0.854081
0.884362
0.9156
0.947821
0.98105
1.01531
1.05063
1.08702
1.12451
1.16312
1.20286
1.24375
1.2858
1.32902
1.37342
1.41901
1.4658
1.51377
1.56293
1.61328
1.66479
1.71746
1.77127
1.8262
1.88222
1.93931
1.99742
2.05652
2.11657
2.17752
2.23932
2.30191
2.36525
2.42926
2.49388
2.55906
2.62472
2.69082
2.75727
2.82401
2.89098
2.95809
3.02529
3.09247
3.15955
3.22643
3.293
3.35906
3.42432
3.48867
3.55202
3.61426
3.67531
3.73503
3.79335
3.85015
3.90536
3.95888
4.01063
4.06053
4.10848
4.15441
4.19825
4.23992
4.27935
4.31649
4.35126
4.3836
4.41343
4.44072
4.46542
4.48752
4.50697
4.52377
4.53789
4.54933
4.5581
4.5642
4.56762
4.5684
4.56658
4.56217
4.55524
4.54582
4.53396
4.51973
4.50319
4.48442
4.4635
4.44051
4.41553
4.38864
4.35994
4.32953
4.29752
4.26401
4.22911
4.19292
4.15556
4.11716
4.07784
4.03773
3.99694
3.95562
3.91391
3.87193
3.82983
3.78774
3.7458
3.70415
3.66291
3.62222
3.58217
3.54288
3.50443
3.4669
3.43035
3.39481
3.36029
3.3268
3.29432
3.26284
3.23235
3.20281
3.17421
3.14654
3.11982
3.0941
3.06939
3.04574
3.02276
3.00067
0.0508763
0.0771548
0.0968249
0.111582
0.124016
0.135223
0.145744
0.15589
0.165859
0.175784
0.185762
0.195863
0.206137
0.216625
0.227357
0.238357
0.249644
0.261236
0.273147
0.285393
0.297986
0.31094
0.32427
0.337989
0.352112
0.366655
0.381632
0.397061
0.412959
0.429343
0.446233
0.463648
0.481609
0.500137
0.519255
0.538986
0.559354
0.580384
0.602103
0.624536
0.647712
0.67166
0.696407
0.721984
0.74842
0.775747
0.803994
0.833192
0.863371
0.894563
0.926798
0.960104
0.994511
1.03005
1.06674
1.10461
1.14369
1.184
1.22555
1.26836
1.31245
1.35783
1.40452
1.45251
1.50181
1.55242
1.60434
1.65757
1.71208
1.76786
1.82491
1.88317
1.94264
2.00328
2.06504
2.12788
2.19177
2.25663
2.32242
2.38908
2.45653
2.5247
2.59352
2.66292
2.73283
2.80317
2.87387
2.94485
3.01605
3.08738
3.15874
3.23007
3.30125
3.37218
3.44271
3.51247
3.58138
3.64932
3.71619
3.7819
3.84634
3.90937
3.9709
4.03082
4.08906
4.1455
4.20007
4.25266
4.30321
4.35161
4.39779
4.44167
4.48318
4.52225
4.55884
4.59284
4.62415
4.65276
4.67862
4.70169
4.72194
4.73936
4.75392
4.76561
4.77443
4.78039
4.78348
4.78373
4.78118
4.77584
4.76778
4.75702
4.74363
4.72767
4.7092
4.68831
4.66507
4.63956
4.61188
4.58211
4.55036
4.51674
4.48134
4.44428
4.40569
4.36567
4.32436
4.28188
4.23837
4.19397
4.14882
4.10306
4.05685
4.01034
3.96368
3.91703
3.87054
3.82437
3.77867
3.73358
3.68925
3.64579
3.60333
3.56196
3.52178
3.48283
3.44518
3.40884
3.37383
3.34015
3.30781
3.27677
3.24702
3.21856
3.19136
3.16543
3.14074
3.11725
3.09452
3.07272
0.0527783
0.0784973
0.0984301
0.113426
0.126047
0.1374
0.148032
0.158256
0.168271
0.178213
0.188177
0.198235
0.208443
0.218842
0.229466
0.240341
0.25149
0.262934
0.274689
0.286772
0.299201
0.311989
0.325154
0.338712
0.352679
0.367073
0.381911
0.397213
0.412998
0.429285
0.446098
0.463458
0.481388
0.499914
0.51906
0.538854
0.559323
0.580495
0.602401
0.62507
0.648535
0.672827
0.697981
0.724029
0.751007
0.778948
0.807887
0.83786
0.868901
0.901045
0.934327
0.968779
1.00444
1.04133
1.07949
1.11894
1.15972
1.20184
1.24532
1.29019
1.33645
1.38413
1.43322
1.48375
1.53571
1.58909
1.64391
1.70013
1.75776
1.81678
1.87715
1.93884
2.00184
2.06608
2.13154
2.19816
2.26588
2.33465
2.40441
2.47508
2.54658
2.61882
2.6917
2.76516
2.83911
2.91347
2.98816
3.06309
3.13818
3.21333
3.28847
3.36348
3.43826
3.51268
3.58637
3.65924
3.73117
3.80206
3.87183
3.94038
4.00762
4.07332
4.13743
4.19985
4.26049
4.31926
4.37605
4.43078
4.48335
4.53368
4.58168
4.62727
4.67036
4.7109
4.7488
4.784
4.8164
4.84597
4.87265
4.8964
4.91718
4.93497
4.94974
4.96148
4.97019
4.97585
4.97848
4.9781
4.97473
4.9684
4.95915
4.94703
4.9321
4.91441
4.89403
4.87105
4.84553
4.81758
4.78727
4.75472
4.72002
4.68328
4.64462
4.60415
4.56201
4.51831
4.4732
4.42681
4.37928
4.33078
4.28144
4.23142
4.1809
4.13003
4.07899
4.02795
3.97707
3.92654
3.87651
3.82717
3.77866
3.73115
3.68476
3.63963
3.59588
3.55359
3.51285
3.47371
3.43621
3.40037
3.36622
3.33374
3.30292
3.27374
3.24617
3.22016
3.19564
3.1725
3.15027
3.12908
0.0542487
0.079253
0.099311
0.11444
0.127155
0.138566
0.149226
0.159449
0.169436
0.179323
0.189206
0.19916
0.20924
0.219489
0.229945
0.240635
0.251585
0.262818
0.274354
0.286212
0.29841
0.310968
0.323903
0.337234
0.35098
0.365162
0.379799
0.394915
0.410531
0.42667
0.443358
0.460621
0.478486
0.49698
0.516135
0.53598
0.556548
0.577869
0.59998
0.622914
0.646707
0.671398
0.697023
0.723622
0.751232
0.779894
0.809647
0.840529
0.872579
0.905837
0.940341
0.976127
1.01323
1.05169
1.09154
1.13281
1.17552
1.21972
1.26539
1.31257
1.36127
1.41149
1.46325
1.51655
1.5714
1.62779
1.6857
1.74513
1.80606
1.86845
1.93229
1.99753
2.06413
2.13205
2.20123
2.27162
2.34315
2.41575
2.48936
2.56394
2.63934
2.71542
2.79211
2.86932
2.94696
3.02495
3.10318
3.18157
3.26
3.33839
3.41664
3.49464
3.57224
3.6491
3.72515
3.80028
3.8744
3.94741
4.01921
4.0897
4.15877
4.2263
4.29217
4.35628
4.41855
4.47887
4.53714
4.59328
4.64718
4.69876
4.74793
4.7946
4.8387
4.88014
4.91885
4.95476
4.98779
5.01788
5.04497
5.06902
5.08999
5.10784
5.12254
5.13408
5.14245
5.14764
5.14965
5.1485
5.14421
5.1368
5.12632
5.1128
5.09631
5.07691
5.05466
5.02965
5.00194
4.97163
4.93882
4.90361
4.8661
4.82642
4.78468
4.74099
4.69551
4.64835
4.59967
4.54961
4.49832
4.44597
4.39271
4.33871
4.28415
4.2292
4.17405
4.11888
4.06388
4.00924
3.95515
3.90178
3.84932
3.79795
3.74782
3.6991
3.65193
3.60643
3.56271
3.52086
3.48095
3.44304
3.40715
3.37329
3.34147
3.31165
3.28378
3.25781
3.23359
3.21099
3.18948
3.16917
0.0553446
0.0794988
0.0995533
0.114716
0.127437
0.138824
0.149433
0.159582
0.16947
0.179235
0.188976
0.198765
0.208661
0.218707
0.228943
0.239398
0.2501
0.261075
0.272344
0.283931
0.295856
0.308141
0.320808
0.333877
0.347372
0.361316
0.375733
0.390649
0.40609
0.422084
0.43866
0.455849
0.473683
0.492195
0.51142
0.531396
0.552159
0.573744
0.59619
0.619538
0.643829
0.669106
0.695413
0.722793
0.751289
0.780945
0.811805
0.84391
0.877305
0.912029
0.948123
0.985628
1.02458
1.06501
1.10697
1.15047
1.19557
1.2423
1.29062
1.34054
1.39208
1.44526
1.50007
1.55653
1.61461
1.67432
1.73562
1.79851
1.86295
1.92891
1.99634
2.06522
2.13548
2.20706
2.27992
2.35397
2.42914
2.50536
2.58254
2.6606
2.73941
2.81886
2.89884
2.97925
3.05998
3.14091
3.22195
3.30298
3.3839
3.46459
3.54497
3.6248
3.70386
3.7821
3.85943
3.93577
4.01101
4.08506
4.15783
4.22923
4.29915
4.36748
4.4341
4.49893
4.56187
4.62281
4.68166
4.73833
4.79272
4.84474
4.8943
4.94131
4.9857
5.02738
5.06627
5.1023
5.13539
5.16548
5.19251
5.21642
5.23717
5.25472
5.26903
5.28008
5.28785
5.29235
5.29355
5.29148
5.28615
5.27758
5.26581
5.25088
5.23284
5.21176
5.18769
5.16072
5.13093
5.0984
5.06324
5.02555
4.98544
4.94303
4.89844
4.85179
4.80324
4.75292
4.70097
4.64756
4.59284
4.53698
4.48015
4.42252
4.36429
4.30563
4.24675
4.18783
4.12908
4.07069
4.01287
3.95583
3.89975
3.84483
3.79126
3.73922
3.68887
3.64038
3.59388
3.54949
3.50732
3.46744
3.42992
3.39478
3.36204
3.33166
3.3036
3.27775
3.25397
3.23206
3.21147
3.1923
0.0561533
0.0793205
0.0992466
0.114347
0.126989
0.138275
0.148761
0.158766
0.168491
0.178075
0.187616
0.197189
0.206852
0.216652
0.226627
0.236812
0.247235
0.257924
0.268905
0.280204
0.291847
0.303858
0.316263
0.329086
0.342355
0.356097
0.370342
0.38512
0.400465
0.416409
0.432988
0.450239
0.468199
0.48691
0.506415
0.52676
0.547998
0.57015
0.593263
0.617389
0.642575
0.66887
0.696324
0.724983
0.754896
0.78611
0.818669
0.852619
0.888002
0.92486
0.963232
1.00315
1.04466
1.08779
1.13256
1.179
1.22714
1.27699
1.32854
1.3818
1.43676
1.49342
1.55178
1.61182
1.67354
1.73689
1.80186
1.86841
1.93651
2.0061
2.07715
2.14959
2.22336
2.2984
2.37463
2.45198
2.53036
2.60968
2.68985
2.77076
2.85228
2.93431
3.01671
3.09937
3.18215
3.26494
3.34761
3.43005
3.51214
3.59374
3.67459
3.75463
3.8338
3.91206
3.98932
4.06551
4.14054
4.21434
4.2868
4.35784
4.42737
4.49527
4.56147
4.62584
4.68831
4.74878
4.80715
4.86332
4.91721
4.96873
5.01779
5.06429
5.10816
5.14931
5.18766
5.22314
5.25567
5.28518
5.3116
5.33488
5.35495
5.37179
5.38534
5.39559
5.4025
5.40606
5.40627
5.40312
5.39663
5.38682
5.37372
5.35736
5.3378
5.31509
5.28929
5.26049
5.22876
5.19419
5.15688
5.11693
5.07447
5.02961
4.98247
4.93319
4.88191
4.82878
4.77395
4.71758
4.65984
4.6009
4.54093
4.48013
4.41869
4.35679
4.29464
4.23244
4.17041
4.10875
4.04767
3.9874
3.92813
3.87009
3.81348
3.7585
3.70534
3.65418
3.60519
3.55853
3.51432
3.47267
3.43368
3.3974
3.36385
3.33303
3.30487
3.27926
3.25603
3.23496
3.21549
3.19768
0.0568084
0.0788267
0.0984995
0.113441
0.125922
0.137034
0.147329
0.157127
0.166632
0.175982
0.185278
0.194595
0.203994
0.213523
0.223223
0.23313
0.243277
0.253693
0.26441
0.275457
0.286869
0.298681
0.310921
0.323609
0.336782
0.350479
0.364736
0.379592
0.395088
0.411266
0.428171
0.445847
0.464343
0.483707
0.503992
0.525251
0.547535
0.570893
0.595378
0.621042
0.64794
0.676124
0.705644
0.736552
0.768895
0.802717
0.83806
0.874964
0.913465
0.953596
0.995386