/*--------------------------------*- C++ -*----------------------------------*\
| =========                 |                                                 |
| \\      /  F ield         | OpenFOAM: The Open Source CFD Toolbox           |
|  \\    /   O peration     | Version:  2.2.x                                 |
|   \\  /    A nd           | Web:      www.OpenFOAM.org                      |
|    \\/     M anipulation  |                                                 |
\*---------------------------------------------------------------------------*/
FoamFile
{
    version     2.0;
    format      ascii;
    class       volScalarField;
    location    "650";
    object      nut;
}
// * * * * * * * * * * * * * * * * * * * * * * * * * * * * * * * * * * * * * //

dimensions      [0 2 -1 0 0 0 0];

internalField   nonuniform List<scalar> 
12225
(
3.09428e-05
3.71944e-05
4.0947e-05
4.3145e-05
4.43824e-05
4.5024e-05
4.52964e-05
4.53419e-05
4.52505e-05
4.50786e-05
4.48618e-05
4.46225e-05
4.43746e-05
4.41268e-05
4.38845e-05
4.36505e-05
4.34229e-05
4.3222e-05
0.000116613
6.9368e-05
5.1605e-05
4.24147e-05
3.71539e-05
3.3921e-05
3.18289e-05
3.04301e-05
2.94808e-05
2.88383e-05
2.84146e-05
2.81524e-05
2.8013e-05
2.7969e-05
2.80007e-05
2.80919e-05
2.82288e-05
2.8372e-05
0.000365112
0.000223242
0.000162458
0.000127915
0.00010604
9.12447e-05
8.07036e-05
7.28788e-05
6.68809e-05
6.21651e-05
5.83814e-05
5.52958e-05
5.27465e-05
5.06178e-05
4.88235e-05
4.72931e-05
4.59563e-05
4.47867e-05
0.000644611
0.000479078
0.0003787
0.000313449
0.000268354
0.000235789
0.000211398
0.000192563
0.000177649
0.000165588
0.000155658
0.000147358
0.000140327
0.000134303
0.000129088
0.000124526
0.000120497
0.00011699
0.000789269
0.000696799
0.000611916
0.000542051
0.000486077
0.000441343
0.000405305
0.000375927
0.000351677
0.000331421
0.00031431
0.00029971
0.000287138
0.000276221
0.000266672
0.000258263
0.000250826
0.000244332
0.000836146
0.000802043
0.000758903
0.000713888
0.000670965
0.000631881
0.0005971
0.000566465
0.000539579
0.000515982
0.000495229
0.000476921
0.000460712
0.000446308
0.000433462
0.000421969
0.000411673
0.000402558
0.000848366
0.000838516
0.000822833
0.000802886
0.000780485
0.000757159
0.00073399
0.000711654
0.00069053
0.000670795
0.000652503
0.000635628
0.000620107
0.000605853
0.000592775
0.000580781
0.000569798
0.000559877
0.000850836
0.000847527
0.000841611
0.000833095
0.000822396
0.000810103
0.00079681
0.000783026
0.000769147
0.000755462
0.000742171
0.000729403
0.000717236
0.00070571
0.000694841
0.000684628
0.00067507
0.000666287
0.000851475
0.000850225
0.000848
0.000844577
0.000839912
0.000834107
0.000827352
0.00081987
0.000811883
0.000803588
0.000795154
0.000786717
0.000778383
0.000770229
0.000762317
0.000754688
0.000747379
0.000740524
0.000851641
0.00085103
0.00085015
0.000848867
0.000847085
0.000844764
0.000841907
0.000838558
0.000834781
0.000830653
0.000826253
0.000821659
0.00081694
0.000812156
0.000807361
0.0008026
0.000797915
0.000793415
0.000851672
0.000851219
0.000850723
0.000850137
0.000849415
0.000848519
0.000847423
0.000846116
0.000844598
0.000842881
0.000840982
0.000838926
0.000836737
0.000834442
0.000832067
0.000829636
0.000827178
0.000824758
0.000851674
0.000851249
0.000850836
0.000850423
0.000849995
0.000849538
0.000849038
0.000848483
0.000847866
0.000847182
0.000846429
0.000845609
0.000844725
0.000843782
0.000842788
0.00084175
0.000840679
0.000839607
0.000851671
0.000851248
0.000850846
0.000850463
0.000850095
0.000849737
0.000849385
0.000849034
0.000848679
0.000848317
0.000847946
0.000847563
0.000847166
0.000846756
0.000846332
0.000845895
0.000845449
0.000845008
0.000851668
0.000851243
0.000850841
0.00085046
0.000850099
0.000849755
0.000849428
0.000849115
0.000848814
0.000848523
0.000848242
0.000847968
0.000847701
0.000847439
0.000847181
0.000846928
0.00084668
0.000846449
0.000851666
0.000851239
0.000850835
0.000850452
0.00085009
0.000849746
0.00084942
0.00084911
0.000848815
0.000848534
0.000848266
0.00084801
0.000847765
0.000847531
0.000847306
0.00084709
0.000846885
0.000846701
0.000851665
0.000851236
0.000850831
0.000850447
0.000850082
0.000849737
0.000849409
0.000849098
0.000848802
0.00084852
0.000848252
0.000847996
0.000847752
0.00084752
0.000847297
0.000847085
0.000846885
0.000846706
0.000851664
0.000851235
0.000850828
0.000850443
0.000850078
0.000849731
0.000849402
0.000849089
0.000848791
0.000848508
0.000848238
0.000847981
0.000847736
0.000847501
0.000847278
0.000847064
0.000846863
0.000846684
0.000851664
0.000851234
0.000850827
0.000850441
0.000850076
0.000849728
0.000849398
0.000849085
0.000848786
0.000848502
0.000848231
0.000847972
0.000847726
0.000847491
0.000847266
0.000847051
0.000846849
0.000846669
0.000851664
0.000851235
0.000850828
0.000850442
0.000850076
0.000849729
0.000849399
0.000849085
0.000848786
0.000848501
0.000848229
0.00084797
0.000847723
0.000847486
0.00084726
0.000847044
0.000846839
0.000846657
0.000851665
0.000851236
0.00085083
0.000850444
0.000850079
0.000849731
0.000849401
0.000849086
0.000848785
0.000848497
0.000848222
0.000847957
0.000847703
0.000847458
0.000847222
0.000846994
0.000846776
0.000846579
0.000851666
0.000851238
0.000850832
0.000850446
0.000850078
0.000849724
0.000849384
0.000849054
0.000848731
0.000848413
0.000848099
0.000847787
0.000847475
0.000847163
0.000846849
0.000846534
0.000846219
0.000845916
0.000851667
0.000851237
0.000850823
0.000850417
0.00085001
0.000849592
0.000849153
0.000848688
0.000848188
0.00084765
0.000847072
0.000846452
0.000845791
0.000845092
0.000844356
0.000843587
0.000842791
0.000841989
0.000851661
0.000851195
0.000850681
0.000850075
0.000849336
0.00084843
0.000847338
0.00084605
0.000844567
0.000842899
0.00084106
0.000839071
0.000836953
0.000834728
0.000832418
0.000830043
0.000827628
0.000825214
0.00085157
0.000850737
0.000849405
0.000847416
0.000844692
0.000841228
0.000837081
0.00083234
0.000827113
0.00082151
0.000815638
0.00080959
0.000803448
0.000797282
0.000791149
0.000785092
0.000779153
0.000773404
0.000850707
0.000847137
0.000840905
0.000832091
0.00082112
0.000808561
0.00079498
0.000780864
0.000766596
0.000752461
0.000738661
0.000725331
0.000712556
0.000700383
0.000688833
0.000677908
0.000667601
0.000657952
0.000844113
0.000825224
0.000798529
0.000767731
0.000735649
0.000704133
0.000674222
0.000646403
0.000620834
0.00059749
0.000576253
0.000556962
0.000539442
0.000523521
0.000509036
0.000495838
0.000483797
0.000472842
0.000803425
0.000727158
0.000652719
0.000587765
0.000532943
0.00048716
0.000448903
0.000416759
0.000389554
0.000366356
0.000346428
0.000329188
0.000314173
0.000301017
0.000289423
0.000279156
0.000270022
0.000261889
0.000625871
0.000466125
0.000370236
0.000306331
0.000260963
0.000227481
0.000201985
0.000182059
0.000166155
0.000153236
0.000142587
0.000133694
0.000126186
0.000119784
0.00011428
0.000109514
0.000105365
0.000101755
0.000254186
0.000158464
0.000118168
9.48474e-05
7.98518e-05
6.9649e-05
6.24035e-05
5.70866e-05
5.3085e-05
5.00128e-05
4.76159e-05
4.57213e-05
4.4208e-05
4.2989e-05
4.2001e-05
4.11966e-05
4.05405e-05
4.00123e-05
3.69327e-05
4.20256e-05
4.57632e-05
4.86729e-05
5.10793e-05
5.30433e-05
5.4625e-05
5.58814e-05
5.68652e-05
5.76231e-05
5.81954e-05
5.86164e-05
5.89148e-05
5.91146e-05
5.92353e-05
5.92933e-05
5.93018e-05
5.92707e-05
3.99047e-06
1.06275e-05
1.18997e-05
1.28354e-05
1.37342e-05
1.45908e-05
1.55709e-05
1.66876e-05
1.78552e-05
1.90434e-05
2.02264e-05
2.13909e-05
2.25314e-05
2.36463e-05
2.47354e-05
2.57997e-05
2.68405e-05
2.78591e-05
2.88572e-05
2.98364e-05
3.07984e-05
3.17447e-05
3.26768e-05
3.35964e-05
3.45047e-05
3.54032e-05
3.62932e-05
3.7176e-05
3.80528e-05
3.89249e-05
3.97936e-05
4.06603e-05
4.15264e-05
4.23936e-05
4.32637e-05
4.4139e-05
4.50222e-05
4.59166e-05
4.68264e-05
4.7757e-05
4.87005e-05
4.96481e-05
5.05995e-05
5.15551e-05
5.25148e-05
5.34787e-05
5.4447e-05
5.54196e-05
5.63963e-05
5.73772e-05
5.83621e-05
5.93509e-05
6.03432e-05
6.1339e-05
6.2338e-05
6.33398e-05
6.43443e-05
6.5351e-05
6.63597e-05
6.73699e-05
6.83813e-05
6.93935e-05
7.0406e-05
7.14185e-05
7.24303e-05
7.34411e-05
7.44503e-05
7.54575e-05
7.64621e-05
7.74635e-05
7.84612e-05
7.94546e-05
8.04432e-05
8.14263e-05
8.24032e-05
8.33734e-05
8.43362e-05
8.52908e-05
8.62366e-05
8.71728e-05
8.80987e-05
8.90136e-05
8.99166e-05
9.08069e-05
9.16836e-05
9.25459e-05
9.33929e-05
9.42237e-05
9.50373e-05
9.58328e-05
9.66093e-05
9.73659e-05
9.81017e-05
9.88161e-05
9.95085e-05
0.000100179
0.000100826
0.000101453
0.000102059
0.000102649
0.000103221
0.000103764
0.000104277
0.00010476
0.000105213
0.000105637
0.00010603
0.000106394
0.000106727
0.00010703
0.000107303
0.000107545
0.000107757
0.000107939
0.000108091
0.000108214
0.000108307
0.000108371
0.000108406
0.000108413
0.000108391
0.000108343
0.000108268
0.000108166
0.000108039
0.000107887
0.000107711
0.000107511
0.000107288
0.000107044
0.000106778
0.000106493
0.000106187
0.000105864
0.000105523
0.000105165
0.000104791
0.000104402
0.000103999
0.000103582
0.000103154
0.000102714
0.000102263
0.000101802
0.000101333
0.000100855
0.00010037
9.98786e-05
9.93811e-05
9.88785e-05
9.83716e-05
9.78606e-05
9.73462e-05
9.68291e-05
9.63092e-05
9.57875e-05
9.52641e-05
9.47374e-05
9.42098e-05
9.36777e-05
9.31434e-05
9.26118e-05
9.20666e-05
9.15152e-05
9.09771e-05
9.04091e-05
9.01591e-05
8.99983e-05
8.9845e-05
8.96877e-05
8.95214e-05
8.93415e-05
8.91436e-05
8.89219e-05
8.86692e-05
8.83728e-05
8.80152e-05
8.75417e-05
8.68835e-05
8.55558e-05
5.84601e-06
2.95571e-05
5.72983e-05
7.50904e-05
8.46346e-05
8.9969e-05
9.34661e-05
9.64601e-05
9.95724e-05
0.000102988
0.00010673
0.000110771
0.000115077
0.000119615
0.000124357
0.000129279
0.00013436
0.00013958
0.000144923
0.000150374
0.000155921
0.000161554
0.000167262
0.000173039
0.000178878
0.000184773
0.00019072
0.000196716
0.000202757
0.000208839
0.000214959
0.000221116
0.000227304
0.000233522
0.000239766
0.000246032
0.000252318
0.000258621
0.000264945
0.000271298
0.0002777
0.000284169
0.000290712
0.000297336
0.000304047
0.00031085
0.000317746
0.000324741
0.000331836
0.000339035
0.000346338
0.000353749
0.000361268
0.000368896
0.000376635
0.000384484
0.000392445
0.000400518
0.000408702
0.000416996
0.000425401
0.000433915
0.000442537
0.000451265
0.000460098
0.000469034
0.00047807
0.000487205
0.000496436
0.000505759
0.000515173
0.000524674
0.000534259
0.000543925
0.000553669
0.000563485
0.000573371
0.000583323
0.000593335
0.000603404
0.000613523
0.000623689
0.000633894
0.000644131
0.000654395
0.000664675
0.000674963
0.000685248
0.000695518
0.00070576
0.000715958
0.000726096
0.000736153
0.000746108
0.000755936
0.000765609
0.000775095
0.000784359
0.00079336
0.000802052
0.000810118
0.000817916
0.000825489
0.000832841
0.000839966
0.000846861
0.000853519
0.000859936
0.000866107
0.000872027
0.000877692
0.000883098
0.000888241
0.000893119
0.000897728
0.000902068
0.000906135
0.00090993
0.000913452
0.000916703
0.000919685
0.000922398
0.000924848
0.000927037
0.000928971
0.000930654
0.000932092
0.000933291
0.000934259
0.000935001
0.000935528
0.000935846
0.000935967
0.000935901
0.000935657
0.000935246
0.000934678
0.000933963
0.000933114
0.000932142
0.000931062
0.000929885
0.00092862
0.000927279
0.000925876
0.000924428
0.000922944
0.000921433
0.000919908
0.000918385
0.000916874
0.000915382
0.000913924
0.000912509
0.000911138
0.000909822
0.000908568
0.000907369
0.000906235
0.000905155
0.000904106
0.000903145
0.000902159
0.000901027
0.000899637
0.000897002
0.000892038
0.000886276
0.000880185
0.000873874
0.000867351
0.000860601
0.000853604
0.000846325
0.000838733
0.000830782
0.000822399
0.000813485
0.000803269
0.000785187
7.07535e-06
4.84548e-05
9.33729e-05
0.000124591
0.000144964
0.000158487
0.000168243
0.000176285
0.000183809
0.000191419
0.000199367
0.000207732
0.000216511
0.000225675
0.000235184
0.000244998
0.000255079
0.000265394
0.000275912
0.000286606
0.000297455
0.000308439
0.000319542
0.000330751
0.000342056
0.000353448
0.000364923
0.000376474
0.0003881
0.000399799
0.000411571
0.000423416
0.000435337
0.000447334
0.000459414
0.000471581
0.000483841
0.000496206
0.000508685
0.000521294
0.00053405
0.000546966
0.000560055
0.000573326
0.00058679
0.000600453
0.000614323
0.000628406
0.000642707
0.000657231
0.000671982
0.000686964
0.000702179
0.000717629
0.000733317
0.000749242
0.000765406
0.000781809
0.000798449
0.000815325
0.000832436
0.000849779
0.000867351
0.000885148
0.000903166
0.0009214
0.000939845
0.000958496
0.000977345
0.000996386
0.00101561
0.00103502
0.00105459
0.00107432
0.00109421
0.00111423
0.00113439
0.00115467
0.00117505
0.00119554
0.00121611
0.00123675
0.00125744
0.00127818
0.00129894
0.00131971
0.00134046
0.00136117
0.00138181
0.00140237
0.0014228
0.00144308
0.00146316
0.001483
0.00150257
0.0015218
0.00154065
0.00155907
0.00157698
0.00159425
0.00161077
0.00162677
0.00164229
0.00165734
0.00167192
0.001686
0.00169959
0.00171266
0.00172522
0.00173724
0.00174873
0.00175967
0.00177005
0.00177987
0.00178912
0.0017978
0.0018059
0.00181342
0.00182036
0.00182673
0.00183251
0.00183773
0.00184237
0.00184646
0.00185
0.00185299
0.00185546
0.00185741
0.00185885
0.00185981
0.00186029
0.00186031
0.0018599
0.00185907
0.00185785
0.00185626
0.00185432
0.00185204
0.00184946
0.00184661
0.0018435
0.00184016
0.00183663
0.00183291
0.00182905
0.00182508
0.00182102
0.00181689
0.00181272
0.00180855
0.0018044
0.00180029
0.00179626
0.00179231
0.00178848
0.00178477
0.00178122
0.0017778
0.00177455
0.00177145
0.00176848
0.00176564
0.00176283
0.00175985
0.00175644
0.00175181
0.00174511
0.0017373
0.00172891
0.00172009
0.00171087
0.00170121
0.00169106
0.00168034
0.00166895
0.00165677
0.00164354
0.00162875
0.00161066
0.00158175
7.98614e-06
6.28958e-05
0.000121856
0.000165598
0.00019651
0.000218653
0.000235401
0.000249194
0.000261633
0.000273664
0.000285792
0.00029825
0.000311122
0.000324415
0.000338103
0.000352146
0.000366501
0.000381127
0.000395989
0.000411054
0.000426296
0.000441692
0.000457224
0.000472879
0.000488647
0.000504522
0.000520499
0.000536577
0.000552758
0.000569044
0.000585441
0.000601953
0.000618591
0.000635361
0.000652276
0.000669348
0.000686588
0.000704012
0.000721635
0.000739472
0.000757539
0.000775849
0.000794416
0.000813253
0.000832369
0.000851774
0.000871479
0.000891489
0.000911813
0.000932456
0.000953423
0.000974718
0.000996344
0.0010183
0.0010406
0.00106323
0.00108619
0.00110949
0.00113312
0.00115709
0.00118137
0.00120598
0.0012309
0.00125613
0.00128166
0.00130749
0.0013336
0.00135999
0.00138663
0.00141354
0.00144068
0.00146805
0.00149563
0.00152342
0.00155139
0.00157952
0.00160781
0.00163623
0.00166477
0.00169341
0.00172212
0.00175089
0.00177969
0.0018085
0.00183729
0.00186604
0.00189472
0.0019233
0.00195174
0.00198001
0.00200806
0.00203586
0.00206336
0.00209051
0.00211725
0.00214353
0.00216929
0.00219448
0.00221905
0.00224272
0.00226562
0.00228784
0.00230939
0.00233029
0.00235052
0.00237007
0.00238892
0.00240705
0.00242446
0.00244113
0.00245705
0.0024722
0.00248658
0.00250017
0.00251296
0.00252495
0.00253613
0.0025465
0.00255605
0.00256479
0.00257272
0.00257984
0.00258615
0.00259168
0.00259642
0.0026004
0.00260362
0.0026061
0.00260786
0.00260892
0.0026093
0.00260903
0.00260813
0.00260663
0.00260456
0.00260195
0.00259883
0.00259523
0.0025912
0.00258676
0.00258195
0.00257682
0.00257139
0.00256572
0.00255984
0.00255379
0.00254762
0.00254137
0.00253509
0.00252881
0.00252258
0.00251644
0.00251042
0.00250459
0.00249895
0.00249354
0.0024884
0.00248354
0.00247897
0.00247468
0.00247066
0.00246685
0.00246319
0.00245946
0.00245539
0.00245044
0.00244412
0.00243686
0.00242898
0.0024206
0.00241175
0.00240235
0.00239232
0.00238155
0.0023699
0.00235715
0.00234295
0.00232657
0.00230601
0.00227559
9.07744e-06
7.15955e-05
0.000143676
0.000199841
0.000241329
0.000272251
0.000296226
0.00031599
0.000333452
0.000349847
0.000365919
0.000382073
0.000398511
0.000415307
0.000432475
0.000449994
0.000467831
0.000485947
0.000504307
0.000522879
0.000541636
0.000560556
0.000579623
0.000598824
0.000618152
0.000637602
0.000657174
0.000676871
0.000696697
0.000716659
0.000736766
0.00075703
0.000777463
0.000798077
0.000818889
0.000839913
0.000861166
0.000882664
0.000904423
0.00092646
0.000948791
0.00097143
0.000994391
0.00101769
0.00104133
0.00106533
0.0010897
0.00111444
0.00113957
0.00116509
0.001191
0.00121731
0.00124402
0.00127113
0.00129865
0.00132658
0.0013549
0.00138362
0.00141274
0.00144226
0.00147215
0.00150242
0.00153307
0.00156407
0.00159543
0.00162712
0.00165914
0.00169147
0.0017241
0.00175702
0.00179019
0.00182362
0.00185728
0.00189114
0.00192519
0.00195942
0.00199378
0.00202827
0.00206285
0.00209751
0.00213221
0.00216693
0.00220164
0.00223631
0.00227091
0.0023054
0.00233977
0.00237396
0.00240794
0.00244168
0.00247512
0.00250823
0.00254095
0.00257323
0.00260502
0.00263627
0.0026669
0.00269687
0.0027261
0.00275438
0.00278183
0.00280849
0.00283438
0.00285949
0.0028838
0.00290731
0.00292998
0.00295181
0.00297278
0.00299287
0.00301206
0.00303033
0.00304768
0.00306409
0.00307955
0.00309404
0.00310756
0.0031201
0.00313166
0.00314224
0.00315184
0.00316045
0.00316809
0.00317477
0.00318049
0.00318527
0.00318912
0.00319207
0.00319413
0.00319533
0.00319569
0.00319524
0.00319401
0.00319204
0.00318935
0.003186
0.003182
0.00317742
0.00317228
0.00316664
0.00316054
0.00315404
0.00314718
0.00314001
0.00313259
0.00312497
0.00311721
0.00310937
0.00310151
0.00309368
0.00308594
0.00307835
0.00307097
0.00306386
0.00305705
0.00305061
0.00304457
0.00303895
0.00303378
0.00302905
0.00302475
0.00302083
0.00301722
0.00301374
0.00301016
0.00300611
0.0030013
0.00299586
0.00298995
0.00298361
0.00297682
0.00296949
0.00296152
0.00295275
0.00294301
0.00293206
0.0029195
0.00290456
0.00288546
0.0028585
1.00463e-05
7.7382e-05
0.000160505
0.000228211
0.000279954
0.000319595
0.000350861
0.000376689
0.00039922
0.000419927
0.000439763
0.00045931
0.000478898
0.000498695
0.000518772
0.000539147
0.000559809
0.000580732
0.000601891
0.000623257
0.000644808
0.000666525
0.000688393
0.000710403
0.00073255
0.000754832
0.000777252
0.000799815
0.00082253
0.000845406
0.000868455
0.000891693
0.000915134
0.000938794
0.00096269
0.00098684
0.00101126
0.00103597
0.00106099
0.00108633
0.00111201
0.00113805
0.00116445
0.00119124
0.00121842
0.00124601
0.00127402
0.00130245
0.00133131
0.00136061
0.00139035
0.00142054
0.00145118
0.00148227
0.0015138
0.00154579
0.00157822
0.00161109
0.0016444
0.00167813
0.00171229
0.00174686
0.00178182
0.00181718
0.00185292
0.00188901
0.00192545
0.00196223
0.00199931
0.00203669
0.00207433
0.00211223
0.00215036
0.00218869
0.00222719
0.00226585
0.00230464
0.00234352
0.00238247
0.00242146
0.00246045
0.00249942
0.00253834
0.00257716
0.00261587
0.00265441
0.00269276
0.00273088
0.00276873
0.00280627
0.00284346
0.00288025
0.0029166
0.00295246
0.00298777
0.00302247
0.00305653
0.00308987
0.00312235
0.0031539
0.0031846
0.00321446
0.00324349
0.00327167
0.00329898
0.00332541
0.00335093
0.00337553
0.00339918
0.00342186
0.00344355
0.00346424
0.0034839
0.00350252
0.00352008
0.00353656
0.00355196
0.00356626
0.00357946
0.00359156
0.00360254
0.00361241
0.00362117
0.00362884
0.00363542
0.00364092
0.00364536
0.00364875
0.00365113
0.0036525
0.0036529
0.00365236
0.00365091
0.0036486
0.00364545
0.00364151
0.00363683
0.00363146
0.00362543
0.00361881
0.00361166
0.00360402
0.00359597
0.00358756
0.00357886
0.00356994
0.00356086
0.0035517
0.00354253
0.00353344
0.00352448
0.00351573
0.00350728
0.00349919
0.00349154
0.00348437
0.00347775
0.00347171
0.00346629
0.00346151
0.00345736
0.0034538
0.00345077
0.00344814
0.00344573
0.00344326
0.00344055
0.00343759
0.0034344
0.00343096
0.00342722
0.00342306
0.00341833
0.00341286
0.00340646
0.00339888
0.00338971
0.00337826
0.00336305
0.00334183
1.08663e-05
8.13037e-05
0.000173399
0.000251404
0.000312753
0.000360812
0.000399258
0.000431128
0.000458721
0.00048369
0.00050717
0.0005299
0.000552341
0.000574763
0.00059731
0.000620052
0.000643011
0.000666189
0.000689571
0.000713142
0.000736886
0.000760789
0.000784842
0.000809037
0.000833373
0.000857852
0.000882479
0.00090726
0.000932208
0.000957334
0.000982654
0.00100818
0.00103394
0.00105994
0.0010862
0.00111274
0.00113958
0.00116675
0.00119425
0.0012221
0.00125032
0.00127893
0.00130794
0.00133736
0.00136721
0.0013975
0.00142824
0.00145943
0.00149109
0.00152321
0.00155581
0.00158888
0.00162244
0.00165647
0.00169097
0.00172595
0.0017614
0.00179732
0.00183369
0.00187051
0.00190778
0.00194547
0.00198358
0.00202209
0.00206099
0.00210027
0.00213989
0.00217986
0.00222013
0.00226071
0.00230155
0.00234263
0.00238394
0.00242544
0.00246711
0.00250891
0.00255082
0.0025928
0.00263482
0.00267685
0.00271885
0.0027608
0.00280265
0.00284436
0.00288592
0.00292727
0.00296838
0.00300922
0.00304974
0.00308992
0.0031297
0.00316904
0.00320791
0.00324626
0.00328403
0.00332118
0.00335766
0.0033934
0.00342822
0.00346217
0.00349527
0.00352753
0.00355892
0.00358945
0.00361908
0.0036478
0.00367557
0.00370238
0.0037282
0.00375299
0.00377675
0.00379944
0.00382104
0.00384153
0.00386089
0.00387909
0.00389613
0.00391198
0.00392664
0.00394009
0.00395234
0.00396336
0.00397318
0.00398178
0.00398918
0.00399538
0.00400041
0.00400426
0.00400697
0.00400857
0.00400906
0.0040085
0.00400691
0.00400433
0.00400081
0.00399639
0.00399112
0.00398504
0.00397823
0.00397073
0.00396262
0.00395395
0.00394479
0.00393523
0.00392533
0.00391518
0.00390485
0.00389444
0.00388403
0.00387372
0.00386359
0.00385374
0.00384425
0.00383522
0.00382674
0.00381888
0.00381171
0.0038053
0.00379971
0.00379495
0.00379106
0.00378802
0.00378577
0.00378423
0.00378326
0.00378268
0.00378231
0.0037821
0.003782
0.00378193
0.00378179
0.00378144
0.00378071
0.00377941
0.00377732
0.00377418
0.00376961
0.003763
0.00375315
0.00373867
1.15551e-05
8.38587e-05
0.000183052
0.000269997
0.000340112
0.000396096
0.000441448
0.000479214
0.000511784
0.000540939
0.000567953
0.000593704
0.000618774
0.000643534
0.000668208
0.000692925
0.000717753
0.000742723
0.000767844
0.000793116
0.000818534
0.000844092
0.000869787
0.000895617
0.000921583
0.000947691
0.000973947
0.00100036
0.00102695
0.00105372
0.0010807
0.00110789
0.00113533
0.00116302
0.00119099
0.00121925
0.00124783
0.00127675
0.00130602
0.00133566
0.00136569
0.00139612
0.00142697
0.00145825
0.00148997
0.00152215
0.0015548
0.00158792
0.00162151
0.0016556
0.00169017
0.00172524
0.0017608
0.00179685
0.00183339
0.00187042
0.00190793
0.00194592
0.00198438
0.00202329
0.00206266
0.00210247
0.0021427
0.00218334
0.00222438
0.00226579
0.00230756
0.00234968
0.00239211
0.00243483
0.00247782
0.00252106
0.00256451
0.00260816
0.00265196
0.00269588
0.00273991
0.00278399
0.0028281
0.0028722
0.00291625
0.00296023
0.00300408
0.00304778
0.00309128
0.00313456
0.00317757
0.00322028
0.00326265
0.00330465
0.00334623
0.00338737
0.00342802
0.00346813
0.00350768
0.00354659
0.00358484
0.00362232
0.00365895
0.00369476
0.00372975
0.00376392
0.00379725
0.00382972
0.00386129
0.00389194
0.00392164
0.00395037
0.00397808
0.00400476
0.00403036
0.00405487
0.00407825
0.00410047
0.00412151
0.00414134
0.00415994
0.00417728
0.00419336
0.00420814
0.00422164
0.00423382
0.0042447
0.00425426
0.00426252
0.00426947
0.00427513
0.00427951
0.00428263
0.0042845
0.00428517
0.00428465
0.00428299
0.00428022
0.00427639
0.00427155
0.00426574
0.00425902
0.00425146
0.00424312
0.00423408
0.00422439
0.00421415
0.00420342
0.00419231
0.00418091
0.0041693
0.00415758
0.00414587
0.00413426
0.00412286
0.00411179
0.00410115
0.00409105
0.0040816
0.0040729
0.00406504
0.00405812
0.0040522
0.00404735
0.0040436
0.00404098
0.00403946
0.00403899
0.00403947
0.00404077
0.00404276
0.00404534
0.00404843
0.00405191
0.00405565
0.00405949
0.00406323
0.00406666
0.00406954
0.0040716
0.00407247
0.0040716
0.00406798
0.00406072
1.21311e-05
8.53588e-05
0.000189986
0.000284498
0.000362422
0.000425698
0.000477548
0.000520949
0.000558321
0.000591527
0.000621943
0.000650559
0.000678063
0.000704919
0.000731432
0.000757794
0.000784121
0.000810482
0.000836915
0.000863438
0.000890062
0.000916792
0.000943632
0.000970586
0.000997662
0.00102487
0.00105221
0.00107971
0.00110738
0.00113522
0.00116327
0.00119154
0.00122005
0.00124882
0.00127787
0.00130722
0.00133688
0.00136689
0.00139725
0.00142799
0.00145913
0.00149067
0.00152263
0.00155504
0.00158789
0.0016212
0.00165498
0.00168924
0.00172399
0.00175923
0.00179496
0.00183119
0.00186791
0.00190514
0.00194286
0.00198107
0.00201977
0.00205896
0.00209862
0.00213874
0.00217933
0.00222036
0.00226182
0.00230369
0.00234598
0.00238864
0.00243168
0.00247506
0.00251877
0.00256278
0.00260707
0.00265162
0.00269638
0.00274135
0.00278648
0.00283174
0.00287711
0.00292254
0.00296799
0.00301344
0.00305884
0.00310416
0.00314936
0.00319439
0.00323922
0.00328382
0.00332814
0.00337215
0.00341582
0.00345911
0.00350198
0.00354441
0.00358636
0.00362778
0.00366865
0.00370891
0.00374853
0.00378739
0.00382552
0.00386289
0.00389951
0.00393535
0.00397038
0.00400458
0.00403792
0.00407035
0.00410185
0.00413238
0.0041619
0.00419038
0.00421778
0.00424406
0.00426919
0.00429314
0.00431587
0.00433735
0.00435754
0.00437642
0.00439397
0.00441016
0.00442498
0.0044384
0.00445043
0.00446105
0.00447026
0.00447807
0.00448447
0.00448947
0.00449309
0.00449536
0.00449629
0.00449591
0.00449427
0.0044914
0.00448734
0.00448214
0.00447586
0.00446855
0.00446029
0.00445114
0.00444118
0.00443048
0.00441913
0.00440723
0.00439487
0.00438215
0.00436919
0.00435609
0.00434296
0.00432993
0.00431713
0.00430467
0.00429269
0.00428132
0.00427068
0.0042609
0.0042521
0.0042444
0.00423789
0.00423268
0.00422882
0.00422637
0.00422534
0.00422572
0.00422746
0.00423046
0.00423462
0.00423985
0.00424604
0.00425306
0.00426076
0.00426895
0.00427742
0.00428592
0.0042942
0.00430198
0.00430886
0.00431433
0.00431751
0.00431772
1.26091e-05
8.60279e-05
0.000194624
0.000295359
0.000380069
0.0004499
0.000507725
0.00055639
0.000598295
0.000635339
0.000668971
0.000700266
0.000729998
0.000758717
0.000786799
0.000814499
0.000841985
0.000869365
0.000896708
0.000924058
0.000951442
0.00097888
0.00100639
0.00103397
0.00106165
0.00108943
0.00111733
0.00114537
0.00117356
0.00120192
0.00123047
0.00125922
0.00128821
0.00131744
0.00134695
0.00137674
0.00140685
0.0014373
0.00146809
0.00149925
0.0015308
0.00156275
0.00159512
0.00162792
0.00166117
0.00169487
0.00172904
0.00176368
0.0017988
0.00183441
0.00187052
0.00190712
0.00194422
0.00198181
0.00201991
0.0020585
0.00209758
0.00213715
0.0021772
0.00221773
0.00225873
0.00230018
0.00234208
0.00238441
0.00242716
0.00247032
0.00251386
0.00255778
0.00260204
0.00264663
0.00269152
0.0027367
0.00278212
0.00282777
0.00287362
0.00291962
0.00296575
0.00301196
0.00305823
0.00310452
0.00315078
0.00319697
0.00324306
0.003289
0.00333475
0.00338028
0.00342554
0.0034705
0.00351512
0.00355937
0.00360322
0.00364665
0.0036896
0.00373207
0.003774
0.00381536
0.00385611
0.00389624
0.00393572
0.00397455
0.00401268
0.0040501
0.00408677
0.00412265
0.00415771
0.0041919
0.00422518
0.00425752
0.00428887
0.00431918
0.00434841
0.00437653
0.00440348
0.00442924
0.00445374
0.00447697
0.00449886
0.0045194
0.00453854
0.00455625
0.00457253
0.00458733
0.00460065
0.00461247
0.00462278
0.00463159
0.00463887
0.00464465
0.00464892
0.00465171
0.00465304
0.00465294
0.00465145
0.00464859
0.00464441
0.00463896
0.0046323
0.00462449
0.0046156
0.0046057
0.00459487
0.0045832
0.00457079
0.00455772
0.00454411
0.00453006
0.0045157
0.00450114
0.00448651
0.00447195
0.0044576
0.00444359
0.00443008
0.00441722
0.00440516
0.00439404
0.00438402
0.00437524
0.00436783
0.00436191
0.0043576
0.00435498
0.0043541
0.00435499
0.00435764
0.00436202
0.00436804
0.00437563
0.00438468
0.00439507
0.00440662
0.00441915
0.00443241
0.00444615
0.00446008
0.00447388
0.00448715
0.00449936
0.00450969
0.00451756
1.30009e-05
8.60375e-05
0.000197321
0.000302985
0.000393419
0.000468981
0.000532155
0.000585606
0.00063167
0.00067225
0.000708835
0.00074256
0.000774271
0.000804584
0.000833944
0.000862664
0.000890959
0.000918981
0.00094683
0.000974577
0.00100227
0.00102994
0.00105763
0.00108534
0.00111309
0.00114092
0.00116883
0.00119684
0.00122498
0.00125326
0.00128171
0.00131034
0.00133918
0.00136825
0.00139757
0.00142716
0.00145705
0.00148725
0.00151778
0.00154867
0.00157992
0.00161156
0.00164361
0.00167608
0.00170897
0.00174231
0.00177611
0.00181037
0.0018451
0.00188032
0.00191602
0.00195222
0.00198891
0.00202611
0.00206381
0.00210201
0.00214071
0.00217992
0.00221962
0.00225982
0.0023005
0.00234167
0.00238332
0.00242542
0.00246798
0.00251099
0.00255442
0.00259826
0.0026425
0.00268711
0.00273207
0.00277736
0.00282295
0.00286882
0.00291493
0.00296125
0.00300775
0.00305439
0.00310112
0.00314792
0.00319473
0.00324152
0.00328824
0.00333484
0.00338128
0.00342752
0.00347352
0.00351924
0.00356465
0.0036097
0.00365437
0.00369864
0.00374247
0.00378583
0.00382869
0.00387104
0.00391293
0.00395431
0.00399515
0.00403542
0.00407509
0.00411411
0.00415244
0.00419004
0.00422686
0.00426286
0.004298
0.00433222
0.00436547
0.00439771
0.00442888
0.00445894
0.00448783
0.00451552
0.00454194
0.00456705
0.0045908
0.00461314
0.00463403
0.00465344
0.00467134
0.00468769
0.00470248
0.00471567
0.00472727
0.00473726
0.00474562
0.00475234
0.00475744
0.00476094
0.00476284
0.00476319
0.004762
0.00475932
0.00475518
0.00474964
0.00474275
0.00473458
0.0047252
0.00471468
0.0047031
0.00469056
0.00467716
0.004663
0.00464818
0.00463284
0.00461708
0.00460105
0.00458489
0.00456874
0.00455275
0.00453708
0.0045219
0.00450738
0.00449369
0.004481
0.0044695
0.00445935
0.00445071
0.00444376
0.00443863
0.00443544
0.0044343
0.00443529
0.00443844
0.00444375
0.00445121
0.00446076
0.00447231
0.00448574
0.00450089
0.00451757
0.00453553
0.00455449
0.00457414
0.00459412
0.00461397
0.00463317
0.00465088
0.00466655
1.33165e-05
8.55231e-05
0.000198375
0.000307738
0.000402805
0.000483198
0.00055099
0.000608632
0.000658364
0.000702062
0.000741229
0.000777041
0.000810394
0.000841963
0.000872247
0.000901611
0.000930318
0.000958558
0.000986466
0.00101414
0.00104165
0.00106904
0.00109636
0.00112364
0.00115091
0.0011782
0.00120552
0.00123289
0.00126035
0.00128792
0.00131561
0.00134346
0.00137147
0.00139969
0.00142812
0.0014568
0.00148574
0.00151497
0.0015445
0.00157436