/*--------------------------------*- C++ -*----------------------------------*\
| =========                 |                                                 |
| \\      /  F ield         | OpenFOAM: The Open Source CFD Toolbox           |
|  \\    /   O peration     | Version:  2.2.x                                 |
|   \\  /    A nd           | Web:      www.OpenFOAM.org                      |
|    \\/     M anipulation  |                                                 |
\*---------------------------------------------------------------------------*/
FoamFile
{
    version     2.0;
    format      ascii;
    class       volScalarField;
    location    "650";
    object      p;
}
// * * * * * * * * * * * * * * * * * * * * * * * * * * * * * * * * * * * * * //

dimensions      [0 2 -2 0 0 0 0];

internalField   nonuniform List<scalar> 
12225
(
-1.46047
-4.16529
-5.01323
-5.25288
-5.41706
-5.55841
-5.67244
-5.76715
-5.851
-5.92827
-6.0009
-6.07016
-6.13705
-6.20227
-6.26621
-6.328
-6.38439
-6.35129
-5.24895
-5.60384
-5.71491
-5.66962
-5.67667
-5.72569
-5.78424
-5.84407
-5.90507
-5.9669
-6.02885
-6.09055
-6.15199
-6.21325
-6.27442
-6.33561
-6.40151
-6.51679
-5.09605
-4.94107
-5.14308
-5.27785
-5.40133
-5.52711
-5.63985
-5.73807
-5.82625
-5.90753
-5.98358
-6.05561
-6.1247
-6.19173
-6.2576
-6.32376
-6.39541
-6.49158
-5.01157
-5.00053
-5.27328
-5.4417
-5.55363
-5.65484
-5.74443
-5.82292
-5.89462
-5.96238
-6.02747
-6.09066
-6.1526
-6.2139
-6.27533
-6.33835
-6.40682
-6.48984
-5.0479
-5.09698
-5.30947
-5.4462
-5.53903
-5.62839
-5.71339
-5.79161
-5.86495
-5.93508
-6.00275
-6.06843
-6.13261
-6.19587
-6.25894
-6.32307
-6.39054
-6.46397
-5.12193
-5.17242
-5.33303
-5.45674
-5.54974
-5.63885
-5.7239
-5.80246
-5.87579
-5.94546
-6.01231
-6.07693
-6.13988
-6.20173
-6.26315
-6.32501
-6.3884
-6.45333
-5.18734
-5.2294
-5.35653
-5.47052
-5.56185
-5.64767
-5.72946
-5.80567
-5.87718
-5.94531
-6.01081
-6.07422
-6.136
-6.1966
-6.25648
-6.31608
-6.37566
-6.43396
-5.23863
-5.2754
-5.38199
-5.48616
-5.57381
-5.65612
-5.73497
-5.80924
-5.87942
-5.94646
-6.01101
-6.07348
-6.13425
-6.19366
-6.252
-6.30943
-6.36587
-6.41974
-5.28211
-5.31518
-5.40601
-5.50094
-5.58458
-5.66364
-5.73982
-5.81221
-5.88102
-5.94692
-6.01041
-6.07185
-6.13152
-6.18966
-6.24642
-6.3018
-6.35554
-6.40607
-5.32733
-5.35666
-5.43295
-5.51815
-5.59702
-5.67239
-5.74551
-5.81566
-5.88276
-5.94721
-6.00938
-6.06953
-6.12784
-6.18444
-6.23939
-6.29254
-6.34356
-6.39107
-5.37347
-5.39897
-5.46252
-5.53792
-5.61126
-5.68245
-5.75211
-5.8196
-5.8846
-5.94727
-6.00781
-6.06637
-6.12304
-6.17784
-6.23074
-6.28153
-6.32986
-6.37464
-5.41957
-5.44134
-5.49408
-5.55999
-5.62721
-5.69379
-5.75962
-5.82404
-5.88657
-5.94712
-6.00571
-6.06238
-6.11712
-6.16988
-6.22056
-6.26893
-6.31469
-6.35702
-5.46448
-5.48284
-5.52661
-5.58369
-5.6445
-5.70614
-5.76786
-5.82888
-5.88858
-5.94666
-6.003
-6.05749
-6.11006
-6.16059
-6.20893
-6.25489
-6.29823
-6.33835
-5.50677
-5.52217
-5.55865
-5.60789
-5.66236
-5.71893
-5.77637
-5.83375
-5.89035
-5.94569
-5.99951
-6.05161
-6.10182
-6.15
-6.19599
-6.23962
-6.28072
-6.31886
-5.54464
-5.55761
-5.58833
-5.63092
-5.67952
-5.73116
-5.78435
-5.83804
-5.8914
-5.94384
-5.99499
-6.04457
-6.09235
-6.13816
-6.18186
-6.2233
-6.26236
-6.29875
-5.57572
-5.58682
-5.61319
-5.65048
-5.69407
-5.74128
-5.79054
-5.84072
-5.89094
-5.94052
-5.98903
-6.03611
-6.08153
-6.12508
-6.16664
-6.20608
-6.24333
-6.27816
-5.59674
-5.60653
-5.62991
-5.66343
-5.70326
-5.74697
-5.79303
-5.84026
-5.88776
-5.93482
-5.98097
-6.02582
-6.06913
-6.1107
-6.1504
-6.18815
-6.22389
-6.25745
-5.60259
-5.61177
-5.63376
-5.66549
-5.70344
-5.7453
-5.78954
-5.835
-5.88078
-5.92618
-5.97071
-6.014
-6.0558
-6.09593
-6.13428
-6.17078
-6.20537
-6.23792
-5.59293
-5.60213
-5.62427
-5.65627
-5.69441
-5.73629
-5.78036
-5.82549
-5.87082
-5.91567
-5.95957
-6.00218
-6.04327
-6.08269
-6.12034
-6.15618
-6.19019
-6.22223
-5.57211
-5.58173
-5.60523
-5.63918
-5.67921
-5.72255
-5.76769
-5.81359
-5.85942
-5.90454
-5.94852
-5.99107
-6.032
-6.07118
-6.10854
-6.14406
-6.17772
-6.20941
-5.54334
-5.55353
-5.57941
-5.61692
-5.66026
-5.70615
-5.75328
-5.80074
-5.84776
-5.89376
-5.93837
-5.98137
-6.02259
-6.06196
-6.09943
-6.135
-6.16869
-6.20041
-5.50898
-5.51933
-5.54868
-5.59156
-5.63935
-5.68842
-5.73804
-5.78751
-5.83606
-5.88317
-5.92859
-5.97216
-6.01379
-6.05341
-6.09101
-6.12659
-6.16019
-6.19167
-5.47107
-5.48015
-5.51447
-5.56505
-5.61832
-5.67103
-5.72361
-5.77552
-5.82596
-5.87455
-5.92115
-5.96568
-6.00807
-6.04829
-6.08636
-6.1223
-6.15617
-6.18793
-5.43154
-5.43622
-5.4776
-5.53793
-5.59672
-5.65296
-5.70849
-5.76257
-5.81445
-5.86403
-5.91136
-5.95644
-5.99927
-6.03983
-6.07814
-6.11421
-6.14801
-6.17931
-5.39161
-5.38787
-5.44322
-5.51558
-5.57884
-5.63894
-5.69872
-5.7563
-5.81077
-5.86232
-5.91117
-5.95741
-6.00109
-6.04229
-6.08105
-6.11741
-6.15141
-6.18301
-5.34866
-5.31936
-5.4047
-5.49268
-5.55501
-5.61341
-5.6728
-5.73026
-5.78491
-5.83707
-5.88688
-5.93431
-5.97931
-6.02191
-6.06209
-6.09979
-6.13483
-6.1665
-5.34263
-5.22775
-5.36719
-5.49744
-5.58005
-5.65052
-5.71565
-5.77418
-5.82742
-5.87706
-5.92386
-5.96811
-6.01001
-6.04971
-6.0873
-6.12277
-6.156
-6.18665
-5.43999
-5.10874
-5.18419
-5.28599
-5.37687
-5.47216
-5.56276
-5.64383
-5.71676
-5.78337
-5.8446
-5.90103
-5.95321
-6.00161
-6.04664
-6.08859
-6.12742
-6.16244
-5.73877
-5.80377
-5.83611
-5.76233
-5.7283
-5.73987
-5.76848
-5.80277
-5.84062
-5.88081
-5.9219
-5.96284
-6.00302
-6.04209
-6.0799
-6.11648
-6.15191
-6.18735
-2.04443
-4.23817
-5.03578
-5.25528
-5.38922
-5.5079
-5.60502
-5.68463
-5.7537
-5.81599
-5.87301
-5.92561
-5.97444
-6.02002
-6.06284
-6.10344
-6.14252
-6.1849
-7.03063
-7.03089
-7.03177
-7.03293
-7.03414
-7.03539
-7.03688
-7.03881
-7.04122
-7.04413
-7.04758
-7.05163
-7.0563
-7.06163
-7.06763
-7.07432
-7.0817
-7.08976
-7.0985
-7.10791
-7.11797
-7.12867
-7.14
-7.15193
-7.16445
-7.17755
-7.19121
-7.20542
-7.22017
-7.23544
-7.25124
-7.26755
-7.28437
-7.30169
-7.31951
-7.33783
-7.35664
-7.37596
-7.39579
-7.41609
-7.43678
-7.45786
-7.47932
-7.50116
-7.52336
-7.54589
-7.56875
-7.59189
-7.6153
-7.63893
-7.66274
-7.68669
-7.71072
-7.73479
-7.75883
-7.78277
-7.80654
-7.83007
-7.85327
-7.87604
-7.8983
-7.91993
-7.94083
-7.96089
-7.97998
-7.99796
-8.01471
-8.03008
-8.04392
-8.05606
-8.06635
-8.07461
-8.08067
-8.08433
-8.08542
-8.08372
-8.07903
-8.07114
-8.05983
-8.04488
-8.02606
-8.00313
-7.97587
-7.94403
-7.90737
-7.86565
-7.81863
-7.76608
-7.70777
-7.64347
-7.57299
-7.49611
-7.41265
-7.32244
-7.22534
-7.12122
-7.00997
-6.89152
-6.7658
-6.63274
-6.49229
-6.34447
-6.18937
-6.0271
-5.85778
-5.68154
-5.49853
-5.30891
-5.11284
-4.91051
-4.70212
-4.48788
-4.268
-4.04269
-3.8122
-3.57675
-3.33658
-3.09193
-2.84303
-2.59012
-2.33343
-2.0732
-1.80963
-1.54295
-1.27336
-1.00105
-0.726212
-0.449011
-0.169623
0.111794
0.3951
0.680168
0.966873
1.2551
1.54475
1.83573
2.12794
2.42131
2.71576
3.01121
3.3076
3.60485
3.90289
4.20165
4.50104
4.80098
5.10138
5.40214
5.70313
6.00425
6.30535
6.60625
6.90682
7.20686
7.50614
7.80447
8.10158
8.39723
8.69109
8.98287
9.27228
9.55878
9.84256
10.1229
10.3984
10.6709
10.9398
11.2025
11.4589
11.7087
11.9518
12.1876
12.4157
12.6359
12.8478
13.0516
13.2483
13.4389
13.6354
13.8272
-7.02792
-7.02866
-7.02968
-7.03067
-7.0314
-7.03196
-7.03264
-7.03375
-7.03542
-7.0377
-7.0406
-7.04415
-7.04838
-7.0533
-7.05891
-7.06523
-7.07225
-7.07997
-7.08837
-7.09745
-7.10718
-7.11755
-7.12854
-7.14014
-7.15233
-7.16509
-7.17842
-7.19229
-7.20669
-7.22162
-7.23707
-7.25303
-7.2695
-7.28646
-7.30392
-7.32187
-7.3403
-7.35922
-7.37862
-7.39846
-7.41873
-7.4394
-7.46047
-7.48192
-7.50374
-7.5259
-7.54838
-7.57116
-7.5942
-7.61748
-7.64094
-7.66455
-7.68825
-7.712
-7.73574
-7.75939
-7.78289
-7.80616
-7.82911
-7.85166
-7.87372
-7.89518
-7.91593
-7.93587
-7.95486
-7.97279
-7.98951
-8.00489
-8.01877
-8.03099
-8.04141
-8.04984
-8.05612
-8.06005
-8.06146
-8.06013
-8.05588
-8.04849
-8.03774
-8.02341
-8.00527
-7.9831
-7.95667
-7.92573
-7.89004
-7.84937
-7.80348
-7.75213
-7.69509
-7.63214
-7.56306
-7.48766
-7.40574
-7.31712
-7.22167
-7.11924
-7.00974
-6.89307
-6.76918
-6.63792
-6.4992
-6.35311
-6.19974
-6.03919
-5.87157
-5.69701
-5.51565
-5.32765
-5.13317
-4.9324
-4.72553
-4.51277
-4.29432
-4.0704
-3.84125
-3.60709
-3.36817
-3.1247
-2.87694
-2.62511
-2.36947
-2.11022
-1.84759
-1.58181
-1.31307
-1.04157
-0.767497
-0.49103
-0.212343
0.0684053
0.351074
0.635527
0.921638
1.20929
1.49838
1.78881
2.08049
2.37334
2.66727
2.96221
3.25808
3.55483
3.85237
4.15064
4.44952
4.74896
5.04887
5.34914
5.64964
5.95027
6.2509
6.55135
6.85147
7.1511
7.44996
7.74793
8.04471
8.34004
8.63365
8.92518
9.2145
9.50087
9.78491
10.066
10.3422
10.6146
10.8828
11.1449
11.4009
11.6506
11.8936
12.1295
12.358
12.5789
12.7919
12.9974
13.1967
13.3908
13.5942
13.7818
-7.02153
-7.02345
-7.02582
-7.02741
-7.02815
-7.02857
-7.02911
-7.03004
-7.03153
-7.03362
-7.03635
-7.03974
-7.0438
-7.04855
-7.05397
-7.06008
-7.06687
-7.07433
-7.08245
-7.09121
-7.10061
-7.11063
-7.12124
-7.13245
-7.14422
-7.15656
-7.16944
-7.18286
-7.1968
-7.21127
-7.22624
-7.24171
-7.25768
-7.27415
-7.2911
-7.30854
-7.32645
-7.34484
-7.3637
-7.383
-7.40273
-7.42287
-7.44342
-7.46436
-7.48567
-7.50734
-7.52933
-7.55162
-7.57418
-7.59698
-7.61998
-7.64313
-7.66639
-7.68971
-7.71302
-7.73626
-7.75937
-7.78226
-7.80486
-7.82708
-7.84882
-7.86999
-7.89048
-7.91018
-7.92897
-7.94673
-7.96332
-7.97859
-7.99242
-8.00463
-8.01508
-8.0236
-8.03001
-8.03414
-8.03579
-8.03479
-8.03091
-8.02397
-8.01374
-8
-7.98254
-7.96113
-7.93553
-7.90552
-7.87084
-7.83127
-7.78657
-7.73649
-7.68082
-7.61932
-7.55179
-7.478
-7.39777
-7.31093
-7.21731
-7.11678
-7.00922
-6.89457
-6.7727
-6.64342
-6.50668
-6.36257
-6.21119
-6.05262
-5.88697
-5.71437
-5.53496
-5.34888
-5.15631
-4.95741
-4.75238
-4.54142
-4.32474
-4.10255
-3.87508
-3.64256
-3.40522
-3.16329
-2.91702
-2.66664
-2.41239
-2.1545
-1.89317
-1.62865
-1.36113
-1.09081
-0.817872
-0.54251
-0.264895
0.0148136
0.296468
0.579928
0.865062
1.15175
1.4399
1.7294
2.02015
2.31208
2.60509
2.8991
3.19404
3.48985
3.78645
4.08376
4.38168
4.68013
4.97904
5.2783
5.57776
5.87733
6.17691
6.47625
6.77526
7.07376
7.37143
7.66822
7.96377
8.25784
8.55019
8.84039
9.12869
9.4142
9.69704
9.97694
10.2522
10.5242
10.7925
11.0551
11.3118
11.5623
11.8063
12.0435
12.2735
12.4961
12.7115
12.9197
13.1228
13.3205
13.5304
13.7047
-7.01334
-7.01644
-7.02058
-7.02351
-7.02519
-7.02632
-7.02738
-7.02866
-7.03035
-7.03255
-7.03534
-7.03874
-7.04278
-7.04747
-7.05281
-7.0588
-7.06543
-7.0727
-7.0806
-7.08911
-7.09823
-7.10795
-7.11824
-7.1291
-7.14052
-7.15248
-7.16497
-7.17799
-7.19153
-7.20558
-7.22013
-7.23518
-7.25073
-7.26676
-7.28328
-7.30028
-7.31775
-7.33569
-7.35409
-7.37295
-7.39224
-7.41197
-7.4321
-7.45264
-7.47355
-7.49483
-7.51645
-7.53837
-7.56058
-7.58304
-7.6057
-7.62853
-7.65149
-7.6745
-7.69753
-7.72051
-7.74336
-7.76602
-7.7884
-7.81042
-7.83198
-7.853
-7.87335
-7.89295
-7.91166
-7.92936
-7.94592
-7.9612
-7.97507
-7.98736
-7.99793
-8.0066
-8.01322
-8.01759
-8.01954
-8.01887
-8.01539
-8.0089
-7.99917
-7.98601
-7.96917
-7.94845
-7.92361
-7.89441
-7.86062
-7.822
-7.77831
-7.72931
-7.67478
-7.61448
-7.5482
-7.47572
-7.39685
-7.3114
-7.21923
-7.12018
-7.01415
-6.90104
-6.78063
-6.65274
-6.51744
-6.37478
-6.22483
-6.0677
-5.90349
-5.73232
-5.55433
-5.36966
-5.17847
-4.98095
-4.77727
-4.56764
-4.35227
-4.13136
-3.90516
-3.67387
-3.43773
-3.19699
-2.95187
-2.70262
-2.44946
-2.19264
-1.93236
-1.66886
-1.40234
-1.133
-0.861026
-0.586606
-0.309914
-0.0311123
0.249647
0.532222
0.816481
1.10231
1.3896
1.67825
1.96816
2.25924
2.5514
2.84457
3.13868
3.43365
3.72941
4.02586
4.32292
4.62052
4.91858
5.21697
5.51554
5.81423
6.11293
6.41135
6.70944
7.00705
7.30369
7.59954
7.89413
8.18719
8.47888
8.76848
9.05602
9.34089
9.62308
9.90234
10.1774
10.449
10.7169
10.9795
11.2366
11.4876
11.7322
11.9702
12.2012
12.425
12.6419
12.8518
13.0569
13.2552
13.4651
13.6245
-7.00587
-7.0099
-7.01571
-7.02019
-7.02308
-7.02517
-7.027
-7.02889
-7.03105
-7.03362
-7.03668
-7.0403
-7.0445
-7.04929
-7.05468
-7.06068
-7.06728
-7.07447
-7.08225
-7.09062
-7.09955
-7.10905
-7.1191
-7.12969
-7.14081
-7.15247
-7.16464
-7.17733
-7.19053
-7.20422
-7.21842
-7.23311
-7.24829
-7.26396
-7.28011
-7.29675
-7.31386
-7.33145
-7.3495
-7.36801
-7.38697
-7.40637
-7.42619
-7.44643
-7.46706
-7.48806
-7.50941
-7.53108
-7.55305
-7.57528
-7.59773
-7.62037
-7.64313
-7.66598
-7.68884
-7.71167
-7.7344
-7.75694
-7.77922
-7.80116
-7.82266
-7.84363
-7.86397
-7.88356
-7.90229
-7.92003
-7.93665
-7.95203
-7.96601
-7.97845
-7.98919
-7.99807
-8.00493
-8.00957
-8.01183
-8.01151
-8.00842
-8.00235
-7.99309
-7.98043
-7.96415
-7.94402
-7.91982
-7.89131
-7.85824
-7.82038
-7.7775
-7.72935
-7.6757
-7.61631
-7.55097
-7.47945
-7.40157
-7.31713
-7.22597
-7.12794
-7.02294
-6.91084
-6.79132
-6.66426
-6.52982
-6.38805
-6.23899
-6.08275
-5.91943
-5.74914
-5.57203
-5.38823
-5.19792
-5.00126
-4.79844
-4.58966
-4.37513
-4.15506
-3.92968
-3.6992
-3.46388
-3.22394
-2.97961
-2.73115
-2.47878
-2.22273
-1.96324
-1.70051
-1.43476
-1.16619
-0.894977
-0.621319
-0.345387
-0.0673447
0.212654
0.494466
0.777964
1.06303
1.34956
1.63746
1.92662
2.21695
2.50837
2.80078
3.09415
3.38839
3.68342
3.97915
4.27546
4.57235
4.86972
5.16742
5.46525
5.76325
6.06133
6.359
6.6564
6.95343
7.24928
7.54455
7.83892
8.13161
8.42285
8.71212
8.99932
9.28395
9.5659
9.84486
10.1198
10.3912
10.6587
10.9211
11.1782
11.4293
11.6743
11.9126
12.1442
12.3688
12.5864
12.7971
13.0026
13.1995
13.4063
13.5526
-7.00089
-7.00559
-7.01261
-7.01842
-7.02249
-7.02557
-7.02822
-7.0308
-7.03351
-7.03653
-7.03996
-7.04387
-7.04829
-7.05324
-7.05875
-7.06481
-7.07142
-7.07859
-7.08631
-7.09456
-7.10336
-7.11269
-7.12254
-7.13292
-7.1438
-7.1552
-7.16711
-7.17951
-7.19242
-7.20582
-7.21972
-7.23411
-7.24899
-7.26436
-7.28022
-7.29656
-7.31339
-7.3307
-7.34848
-7.36674
-7.38545
-7.40461
-7.42421
-7.44423
-7.46466
-7.48548
-7.50666
-7.52818
-7.55001
-7.57211
-7.59445
-7.61698
-7.63966
-7.66243
-7.68524
-7.70803
-7.73072
-7.75325
-7.77553
-7.79749
-7.81902
-7.84004
-7.86044
-7.88011
-7.89893
-7.91679
-7.93355
-7.94909
-7.96324
-7.97588
-7.98685
-7.99597
-8.0031
-8.00804
-8.01062
-8.01065
-8.00793
-8.00227
-7.99344
-7.98125
-7.96546
-7.94586
-7.9222
-7.89427
-7.8618
-7.82458
-7.78234
-7.73485
-7.68188
-7.62318
-7.55854
-7.48772
-7.41053
-7.32679
-7.23631
-7.13897
-7.03464
-6.92307
-6.80395
-6.67732
-6.54334
-6.40202
-6.25345
-6.09769
-5.93485
-5.76505
-5.58843
-5.40513
-5.21531
-5.01915
-4.81684
-4.60857
-4.39455
-4.17501
-3.95015
-3.72021
-3.48542
-3.24603
-3.00227
-2.75438
-2.5026
-2.24715
-1.98826
-1.72616
-1.46105
-1.19312
-0.922571
-0.649582
-0.37433
-0.0969804
0.182314
0.463412
0.746187
1.03053
1.31634
1.60351
1.89194
2.18154
2.47223
2.76391
3.05656
3.35011
3.64445
3.93948
4.23508
4.53131
4.82808
5.12514
5.42226
5.71967
6.01725
6.31424
6.61105
6.90776
7.20342
7.4983
7.79225
8.0847
8.37565
8.66471
8.95172
9.23623
9.51806
9.79685
10.0719
10.3432
10.6104
10.8728
11.1298
11.3811
11.6263
11.8651
12.0971
12.3221
12.5402
12.751
12.9562
13.1509
13.354
13.489
-6.99941
-7.00441
-7.0121
-7.01886
-7.02386
-7.02779
-7.03118
-7.03439
-7.03764
-7.0411
-7.04489
-7.04909
-7.05374
-7.05887
-7.0645
-7.07063
-7.07728
-7.08444
-7.09211
-7.10029
-7.10898
-7.11817
-7.12787
-7.13806
-7.14875
-7.15994
-7.17162
-7.1838
-7.19646
-7.20963
-7.22328
-7.23743
-7.25207
-7.2672
-7.28283
-7.29895
-7.31557
-7.33267
-7.35026
-7.36833
-7.38687
-7.40588
-7.42533
-7.44523
-7.46554
-7.48626
-7.50735
-7.5288
-7.55057
-7.57263
-7.59494
-7.61746
-7.64014
-7.66292
-7.68576
-7.70858
-7.73133
-7.75392
-7.77628
-7.79833
-7.81997
-7.84111
-7.86164
-7.88146
-7.90044
-7.91847
-7.93542
-7.95115
-7.96553
-7.9784
-7.98962
-7.99901
-8.00642
-8.01167
-8.01457
-8.01494
-8.01258
-8.00729
-7.99887
-7.98709
-7.97174
-7.95259
-7.9294
-7.90194
-7.86997
-7.83325
-7.79152
-7.74454
-7.69208
-7.63388
-7.56972
-7.49938
-7.42265
-7.33933
-7.24927
-7.15232
-7.04834
-6.93687
-6.81774
-6.69123
-6.55738
-6.41622
-6.26779
-6.1122
-5.94954
-5.77993
-5.6035
-5.42041
-5.23081
-5.03488
-4.83281
-4.62481
-4.41107
-4.19182
-3.96728
-3.73768
-3.50325
-3.26424
-3.02088
-2.77342
-2.5221
-2.26713
-2.00876
-1.7472
-1.48266
-1.21532
-0.945374
-0.673012
-0.39841
-0.121733
0.156869
0.437258
0.719309
1.00291
1.288
1.57445
1.86215
2.15101
2.44095
2.73187
3.02381
3.31669
3.61034
3.90469
4.19956
4.49515
4.79139
5.08787
5.38426
5.6811
5.97836
6.27506
6.57149
6.86771
7.16309
7.4577
7.75134
8.04361
8.3344
8.62336
8.91028
9.19477
9.47657
9.75532
10.0304
10.3018
10.569
10.8314
11.0886
11.3402
11.5857
11.8248
12.0571
12.2825
12.5008
12.7114
12.9159
13.1082
13.3076
13.4329
-7.00135
-7.00638
-7.01429
-7.02158
-7.02725
-7.03181
-7.0358
-7.03953
-7.04323
-7.04707
-7.05117
-7.05562
-7.06046
-7.06573
-7.07146
-7.07765
-7.08432
-7.09147
-7.0991
-7.10721
-7.1158
-7.12488
-7.13444
-7.14448
-7.15501
-7.16602
-7.17752
-7.18951
-7.20198
-7.21495
-7.22842
-7.24238
-7.25684
-7.2718
-7.28727
-7.30323
-7.3197
-7.33667
-7.35413
-7.37209
-7.39054
-7.40946
-7.42885
-7.44869
-7.46896
-7.48965
-7.51074
-7.53219
-7.55398
-7.57607
-7.59843
-7.621
-7.64375
-7.66663
-7.68956
-7.71249
-7.73536
-7.75809
-7.78059
-7.80279
-7.82459
-7.84591
-7.86662
-7.88663
-7.90582
-7.92406
-7.94123
-7.9572
-7.97182
-7.98495
-7.99642
-8.00609
-8.01379
-8.01933
-8.02254
-8.02323
-8.0212
-8.01626
-8.00819
-7.99677
-7.98179
-7.96302
-7.94022
-7.91315
-7.88157
-7.84523
-7.80388
-7.75727
-7.70515
-7.64729
-7.58343
-7.51336
-7.43687
-7.35377
-7.26388
-7.16707
-7.06303
-6.9513
-6.83193
-6.70527
-6.57129
-6.43001
-6.28149
-6.12581
-5.96309
-5.79343
-5.61697
-5.43386
-5.24427
-5.04837
-4.84635
-4.63843
-4.4248
-4.20569
-3.98131
-3.7519
-3.5177
-3.27896
-3.03591
-2.78879
-2.53785
-2.28331
-2.0254
-1.76434
-1.50033
-1.23356
-0.964201
-0.692457
-0.418505
-0.142506
0.135391
0.415053
0.696355
0.979199
1.26354
1.54925
1.8362
2.1243
2.41348
2.70359
2.9948
3.28705
3.58004
3.87371
4.16779
4.46273
4.75852
5.0545
5.35053
5.64689
5.94357
6.23994
6.53607
6.83194
7.1271
7.42154
7.71502
8.00722
8.29797
8.58695
8.87392
9.1585
9.4404
9.71926
9.99457
10.2661
10.5335
10.7961
11.0535
11.3054
11.5512
11.7907
12.0234
12.249
12.4673
12.6776
12.8811
13.0709
13.2668
13.384
-7.00632
-7.01118
-7.01897
-7.02644
-7.03248
-7.03746
-7.04186
-7.04597
-7.05001
-7.05413
-7.05846
-7.06308
-7.06806
-7.07343
-7.07921
-7.08543
-7.09209
-7.09921
-7.10678
-7.11482
-7.12332
-7.13229
-7.14173
-7.15164
-7.16203
-7.1729
-7.18425
-7.19609
-7.20843
-7.22126
-7.23458
-7.24841
-7.26275
-7.2776
-7.29296
-7.30883
-7.32522
-7.34212
-7.35953
-7.37744
-7.39586
-7.41477
-7.43415
-7.45401
-7.47431
-7.49505
-7.51619
-7.53772
-7.55959
-7.58178
-7.60424
-7.62694
-7.64982
-7.67284
-7.69593
-7.71903
-7.74207
-7.76497
-7.78767
-7.81006
-7.83207
-7.85359
-7.87452
-7.89475
-7.91417
-7.93264
-7.95005
-7.96626
-7.98113
-7.9945
-8.00624
-8.01617
-8.02413
-8.02995
-8.03343
-8.03441
-8.03267
-8.02802
-8.02024
-8.00913
-7.99445
-7.97598
-7.95348
-7.9267
-7.8954
-7.85933
-7.81824
-7.77186
-7.71995
-7.66225
-7.59854
-7.52857
-7.45213
-7.36903
-7.27913
-7.18222
-7.07764
-6.96526
-6.84556
-6.71855
-6.58424
-6.44264
-6.29383
-6.13788
-5.97491
-5.80502
-5.62836
-5.44507
-5.25533
-5.05932
-4.85722
-4.64925
-4.43561
-4.21653
-3.99223
-3.76293
-3.52888
-3.29034
-3.04754
-2.80072
-2.55013
-2.29598
-2.03852
-1.77796
-1.5145
-1.2483
-0.979539
-0.70843
-0.435154
-0.159865
0.117293
0.396189
0.676689
0.958712
1.24229
1.52725
1.81342
2.10073
2.38911
2.67834
2.96877
3.26038
3.5527
3.84572
4.13929
4.43361
4.72869
5.02411
5.31976
5.61572
5.91193
6.208
6.5039
6.79954
7.09458
7.38895
7.6824
7.97466
8.26549
8.55462
8.84177
9.12657
9.40872
9.68783
9.96346
10.2353
10.503
10.7659
11.0237
11.2759
11.5222
11.762
11.995
12.2208
12.4391
12.6488
12.8511
13.0386
13.2313
13.3418
-7.0138
-7.01834
-7.02574
-7.03311
-7.03925
-7.04443
-7.04906
-7.0534
-7.05764
-7.06193
-7.0664
-7.07113
-7.07617
-7.08157
-7.08736
-7.09356
-7.10018
-7.10724
-7.11474
-7.12269
-7.13109
-7.13996
-7.14929
-7.15909
-7.16936
-7.18012
-7.19136
-7.2031
-7.21533
-7.22806
-7.2413
-7.25505
-7.26932
-7.28411
-7.29943
-7.31527
-7.33164
-7.34853
-7.36595
-7.38388
-7.40234
-7.42129
-7.44074
-7.46067
-7.48107
-7.50191
-7.52316
-7.54481
-7.56683
-7.58916
-7.61179
-7.63466
-7.65772
-7.68092
-7.7042
-7.7275
-7.75075
-7.77387
-7.79678
-7.81939
-7.84162
-7.86336
-7.88452
-7.90497
-7.92461
-7.94332
-7.96095
-7.97739
-7.99248
-8.00609
-8.01805
-8.02821
-8.03639
-8.04243
-8.04615
-8.04735
-8.04584
-8.04141
-8.03386
-8.02297
-8.00851
-7.99025
-7.96795
-7.94136
-7.91023
-7.87432
-7.83335
-7.78708
-7.73523
-7.67756
-7.61382
-7.54377
-7.46721
-7.38397
-7.29386
-7.19632
-7.09086
-6.97784
-6.85761
-6.7301
-6.5953
-6.45324
-6.30399
-6.14764
-5.98428
-5.81404
-5.63706
-5.45349
-5.26351
-5.06728
-4.86502
-4.65693
-4.44322
-4.22411
-3.99983
-3.77059
-3.53667
-3.2983
-3.05575
-2.80923
-2.55899
-2.30526
-2.04827
-1.78824
-1.52537
-1.2598
-0.99166
-0.721221
-0.448671
-0.174145
0.10222
0.380292
0.659917
0.94102
1.22376
1.50794
1.79326
2.07973
2.36729
2.65581
2.94543
3.23616
3.5277
3.82002
4.113
4.40673
4.70116
4.99605
5.29129
5.58688
5.88272
6.17854
6.47427
6.76978
7.06479
7.35918
7.65272
7.94513
8.23619
8.52558
8.81304
9.09819
9.38072
9.66024
9.93633
10.2086
10.4767
10.7401
10.9984
11.2511
11.4978
11.738
11.9714
12.1973
12.4154
12.6246
12.8257
13.0109
13.2006
13.3058
-7.02318
-7.02731
-7.03415
-7.04116
-7.04718
-7.05237
-7.05705
-7.06146
-7.06578
-7.07013
-7.07464
-7.07938
-7.08441
-7.08978
-7.09552
-7.10166
-7.1082
-7.11517
-7.12258
-7.13043
-7.13874
-7.1475
-7.15673
-7.16643
-7.17662
-7.18729
-7.19845
-7.21012
-7.22229
-7.23497
-7.24818
-7.2619
-7.27616
-7.29095
-7.30627
-7.32214
-7.33854
-7.35549
-7.37297
-7.39099
-7.40953
-7.42859
-7.44815
-7.46821
-7.48875
-7.50973
-7.53115
-7.55297
-7.57516
-7.59769
-7.6205
-7.64357
-7.66684
-7.69025
-7.71374
-7.73726
-7.76072
-7.78405
-7.80718
-7.83001
-7.85245
-7.8744
-7.89576
-7.91642
-7.93625
-7.95515
-7.97297
-7.98959
-8.00486
-8.01864
-8.03077
-8.04109
-8.04943
-8.05562
-8.05949
-8.06083
-8.05946
-8.05518
-8.04776
-8.037
-8.02265
-8.00449
-7.98229
-7.95578
-7.92471
-7.88883
-7.84787
-7.80157
-7.74965
-7.69186
-7.62794
-7.55767
-7.48084
-7.39729
-7.30658
-7.20792
-7.10144
-6.98779
-6.86695
-6.73883
-6.60343
-6.46081
-6.31103
-6.15419
-5.99037
-5.81971
-5.64234
-5.45843
-5.26814
-5.07167
-4.8692
-4.66096
-4.44716
-4.22804
-4.00379
-3.77461
-3.54081
-3.30265
-3.06036
-2.81418
-2.56434
-2.31107
-2.05461
-1.79517
-1.53299
-1.26814
-1.00069
-0.730984
-0.459233
-0.185548
0.0899479
0.367133
0.645882
0.926116
1.20787
1.49104
1.77541
2.06095
2.34761
2.6353
2.92408
3.21392
3.50465
3.79622
4.08855
4.38166
4.67548
4.96986
5.26468
5.55991
5.85544
6.15106
6.44667
6.74211
7.03717
7.33167
7.62538
7.91806
8.20943
8.49921
8.7871
9.07274
9.3558
9.63587
9.91254
10.1854
10.4541
10.7181
10.977
11.2303
11.4775
11.7182
11.9519
12.1779
12.3959
12.6045
12.8043
12.9875
13.1745
13.2755
-7.03389
-7.03754
-7.0437
-7.05018
-7.05589
-7.0609
-7.06548
-7.06982
-7.07408
-7.07838
-7.08282
-7.08749
-7.09244
-7.09772
-7.10335
-7.10938
-7.11581
-7.12267
-7.12996
-7.13771
-7.14591
-7.15457
-7.16372
-7.17334
-7.18346
-7.19407
-7.20519
-7.21683
-7.22898
-7.24166
-7.25487
-7.26862
-7.28291
-7.29775
-7.31314
-7.32908
-7.34558
-7.36263
-7.38022
-7.39836
-7.41704
-7.43625
-7.45597
-7.47619
-7.4969
-7.51806
-7.53967
-7.56168
-7.58407
-7.60679
-7.62981
-7.65308
-7.67655
-7.70017
-7.72386
-7.74758
-7.77123
-7.79476
-7.81806
-7.84107
-7.86368
-7.88579
-7.9073
-7.9281
-7.94806
-7.96708
-7.98501
-8.00173
-8.0171
-8.03096
-8.04316
-8.05355
-8.06195
-8.0682
-8.07211
-8.07349
-8.07216
-8.0679
-8.06051
-8.04975
-8.03541
-8.01724
-7.99501
-7.96846
-7.93733
-7.90136
-7.86028
-7.81382
-7.76169
-7.70365
-7.63942
-7.56879
-7.49159
-7.40747
-7.3154
-7.21534
-7.10815
-6.99383
-6.87231
-6.74353
-6.60749
-6.46425
-6.31391
-6.15653
-5.99223
-5.82113
-5.64336
-5.4591
-5.26852
-5.07179
-4.86914
-4.66078
-4.44692
-4.22785
-4.0037
-3.77465
-3.54101
-3.3031
-3.06114
-2.81536
-2.56599
-2.31326
-2.05739
-1.79859
-1.53709
-1.27299
-1.00642
-0.737628
-0.4668
-0.194066
0.0804513
0.356638
0.634389
0.913625
1.19433
1.4764
1.75973
2.04425
2.32991
2.61666
2.90452
3.19344
3.48332
3.7741
4.06571
4.35816
4.65138
4.94523
5.23963
5.53451
5.82976
6.12521
6.42073
6.71616
7.01131
7.30599
7.59997
7.89298
8.18477
8.47505
8.76348
9.04973
9.33343
9.61419
9.89159
10.1652
10.4347
10.6994
10.959
11.213
11.4608
11.7021
11.9361
12.1624
12.3802
12.5882
12.7869
12.9683
13.1528
13.2506
-7.04539
-7.04854
-7.05395
-7.05979
-7.06504
-7.06971
-7.07403
-7.07816
-7.08223
-7.08636
-7.09063
-7.09514
-7.09992
-7.10504
-7.11052
-7.11639
-7.12268
-7.1294
-7.13657
-7.14419
-7.15229
-7.16087
-7.16994
-7.17951
-7.18959
-7.20018
-7.21129
-7.22293
-7.23511
-7.24783
-7.26109
-7.27491
-7.28929
-7.30422
-7.31972
-7.33578
-7.35241
-7.36959
-7.38734
-7.40564
-7.42448
-7.44386
-7.46375
-7.48415
-7.50504
-7.52639
-7.54818
-7.57038
-7.59295
-7.61585
-7.63905
-7.6625
-7.68613
-7.70991
-7.73375
-7.75761
-7.7814
-7.80504
-7.82845
-7.85155
-7.87423
-7.89641
-7.91797
-7.9388
-7.95879
-7.97782
-7.99575
-8.01245
-8.02779
-8.0416
-8.05375
-8.06408
-8.07241
-8.07858
-8.08241
-8.0837
-8.08228
-8.07792
-8.07043
-8.05955
-8.04507
-8.02676
-8.00437
-7.97766
-7.94635
-7.91017
-7.86885
-7.8221
-7.76964
-7.71123
-7.64661
-7.57556
-7.49775
-7.41203
-7.31827
-7.21743
-7.10956
-6.99455
-6.87238
-6.743
-6.60636
-6.46253
-6.31163
-6.15375
-5.98898
-5.81746
-5.63932
-5.45474
-5.26389
-5.06697
-4.86417
-4.65573
-4.44186
-4.22281
-3.99879
-3.76998
-3.53666
-3.29911
-3.05758
-2.8123
-2.5635
-2.31141
-2.05625
-1.79823
-1.53753
-1.27432
-1.00873
-0.740967
-0.4712
-0.199557
0.0738436
0.348895
0.625503
0.903592
1.18312
1.46402
1.74619
2.02958
2.31416
2.59987
2.88671
3.17465
3.46361
3.75354
4.04439
4.33614
4.62872
4.92203
5.21599
5.51051
5.80549
6.10077
6.39622
6.69169
6.98697
7.28187
7.57616
7.86959
8.16188
8.45272
8.74181
9.02877
9.31323
9.5948
9.87306
10.1476
10.4179
10.6835
10.944
11.1988
11.4473
11.6892
11.9237
12.1502
12.3679
12.5754
12.773
12.9529
13.1351
13.2307
-7.05725
-7.05992
-7.06457
-7.06968
-7.07434
-7.07854
-7.08245
-7.08622
-7.08996
-7.09379
-7.09779
-7.10203
-7.10657
-7.11145
-7.11672
-7.12239
-7.1285
-7.13506
-7.14209
-7.14961
-7.15761
-7.16612
-7.17514
-7.18468
-7.19474
-7.20534
-7.21648
-7.22817
-7.24041
-7.2532
-7.26656
-7.28049
-7.29498
-7.31004
-7.32568
-7.34189
-7.35867
-7.37601
-7.39392
-7.41238
-7.43139
-7.45093
-7.47099
-7.49155
-7.51259
-7.53409
-7.55602
-7.57835
-7.60104
-7.62406
-7.64736
-7.6709
-7.69461
-7.71844
-7.74234
-7.76622
-7.79002
-7.81365
-7.83703
-7.86008
-7.8827
-7.90479
-7.92625
-7.94697
-7.96682
-7.98569
-8.00346
-8.01998
-8.03513
-8.04874
-8.06068
-8.07079
-8.07889
-8.08483
-8.08842
-8.08948
-8.08782
-8.08323
-8.07552
-8.06443
-8.04972
-8.03116
-8.00852
-7.98154
-7.94994
-7.91346
-7.8718
-7.82468
-7.77183
-7.71303
-7.64797
-7.57616
-7.49648
-7.40891
-7.31437
-7.21288
-7.10433
-6.98866
-6.86582
-6.73583
-6.59866
-6.45433
-6.30295
-6.14462
-5.97944
-5.80756
-5.62913
-5.4443
-5.25326
-5.05622
-4.85337
-4.64494
-4.43115
-4.21225
-3.98845
-3.75998
-3.52709
-3.29004
-3.04909
-2.80446
-2.5564
-2.30511
-2.05083
-1.79374
-1.53403
-1.27188
-1.00742
-0.74084
-0.472288
-0.201891
0.0702414
0.344008
0.619324
0.89612
1.17435
1.45395
1.73485
2.01701
2.30038
2.58495
2.87069
3.15757
3.44554
3.73456
4.02458
4.31557
4.60748
4.90022
5.1937
5.48784
5.78254
6.07765
6.37304
6.66855
6.96398
7.25914
7.55379
7.84767
8.14051
8.43199
8.7218
9.00956
9.29489
9.57738
9.8566
10.1321
10.4034
10.6701
10.9315
11.1872
11.4367
11.6793
11.9143
12.1411
12.3588
12.5659
12.7626
12.9412
13.1212
13.2155
-7.06919
-7.07141
-7.07533
-7.07966
-7.08363
-7.08721
-7.09055
-7.09379
-7.09705
-7.10043
-7.10402
-7.10788
-7.11207
-7.11665
-7.12164
-7.12707
-7.13298
-7.13937
-7.14626
-7.15366
-7.16159
-7.17004
-7.17903
-7.18857
-7.19865
-7.20929
-7.22049
-7.23225
-7.24458
-7.25748
-7.27096
-7.28501
-7.29963
-7.31484
-7.33062
-7.34697
-7.36389
-7.38137
-7.39941
-7.41799
-7.43711
-7.45676
-7.47691
-7.49755
-7.51866
-7.5402
-7.56217
-7.58451
-7.6072
-7.63019
-7.65344
-7.67691
-7.70053
-7.72426
-7.74802
-7.77176
-7.7954
-7.81884
-7.84201
-7.86482
-7.88718
-7.909
-7.93017
-7.95058
-7.97011
-7.98865
-8.00607
-8.02224
-8.03702
-8.05027
-8.06184
-8.07157
-8.0793
-8.08487
-8.08809
-8.08878
-8.08676
-8.08181
-8.07374
-8.06231
-8.04728
-8.02839
-8.00541
-7.97808
-7.94611
-7.90925
-7.86718
-7.81966
-7.7664
-7.70714
-7.641
-7.567
-7.48555
-7.39726
-7.30213
-7.20003
-7.09087
-6.97459
-6.85119
-6.72065
-6.58298
-6.43823
-6.28646
-6.1278
-5.96234
-5.79023
-5.61163
-5.42669
-5.23562
-5.0386
-4.83586
-4.6276
-4.41407
-4.19549
-3.9721
-3.74414
-3.51185
-3.27549
-3.03529
-2.79151
-2.54436
-2.29407
-2.04084
-1.78488
-1.52636
-1.26545
-1.0023
-0.737068
-0.469901
-0.200915
0.0697861
0.342111
0.615981
0.891336
1.16813
1.44631
1.72582
2.00662
2.28869
2.572
2.85654
3.14228
3.42919
3.71722
4.00634
4.29653
4.58771
4.87983
5.1728
5.46653
5.76093
6.05585
6.35117
6.64671
6.94229
7.23771
7.53273
7.82709
8.12051
8.41268
8.70326
8.99188
9.27814
9.56164
9.84192
10.1185
10.391
10.6587
10.9213
11.1781
11.4285
11.672
11.9077
12.1349
12.3527
12.5595
12.7555
12.933
13.111
13.2048
-7.08113
-7.08296
-7.08619
-7.08971
-7.09286
-7.09565
-7.09823
-7.10074
-7.10331
-7.10606
-7.10907
-7.11241
-7.11615
-7.12033
-7.12498
-7.13013
-7.1358
-7.142
-7.14874
-7.15604
-7.16389
-7.17231
-7.18129
-7.19084
-7.20096
-7.21166
-7.22293
-7.23478
-7.2472
-7.26021
-7.27379
-7.28795
-7.30268
-7.31798
-7.33386
-7.3503
-7.36729
-7.38482
-7.40289
-7.42149
-7.4406
-7.46021
-7.48031
-7.50086
-7.52186
-7.54328
-7.56508
-7.58723
-7.60971
-7.63246
-7.65545
-7.67862
-7.70192
-7.7253
-7.7487
-7.77204
-7.79526
-7.81828
-7.841
-7.86335
-7.88524
-7.90657
-7.92723
-7.94713
-7.96614
-7.98415
-8.00104
-8.01668
-8.03093
-8.04365
-8.05469
-8.06391
-8.07113
-8.0762
-8.07893
-8.07915
-8.07666
-8.07126
-8.06274
-8.05086
-8.03541
-8.01611
-7.99272
-7.96498
-7.93258
-7.89533
-7.8529
-7.805
-7.75114
-7.69003
-7.62148
-7.54618
-7.46419
-7.37544
-7.27982
-7.17723
-7.06759
-6.95088
-6.82707
-6.69615
-6.55816
-6.41314
-6.26116
-6.10233
-5.93677
-5.76461
-5.58603