/*--------------------------------*- C++ -*----------------------------------*\
| =========                 |                                                 |
| \\      /  F ield         | OpenFOAM: The Open Source CFD Toolbox           |
|  \\    /   O peration     | Version:  2.2.x                                 |
|   \\  /    A nd           | Web:      www.OpenFOAM.org                      |
|    \\/     M anipulation  |                                                 |
\*---------------------------------------------------------------------------*/
FoamFile
{
    version     2.0;
    format      ascii;
    class       surfaceScalarField;
    location    "650";
    object      phi;
}
// * * * * * * * * * * * * * * * * * * * * * * * * * * * * * * * * * * * * * //

dimensions      [0 3 -1 0 0 0 0];

internalField   nonuniform List<scalar> 
24170
(
3.08816e-06
4.57359e-08
3.0142e-06
7.39604e-08
2.95204e-06
6.21549e-08
2.88975e-06
6.2292e-08
2.83017e-06
5.95773e-08
2.77473e-06
5.54444e-08
2.72345e-06
5.12775e-08
2.67607e-06
4.73846e-08
2.63227e-06
4.37936e-08
2.59178e-06
4.04943e-08
2.55431e-06
3.74681e-08
2.51962e-06
3.46919e-08
2.48747e-06
3.21439e-08
2.45766e-06
2.98125e-08
2.42993e-06
2.77263e-08
2.40375e-06
2.61827e-08
2.37688e-06
2.68675e-08
3.0459e-08
2.34642e-06
3.46858e-06
3.35994e-08
3.45792e-06
8.46204e-08
3.4434e-06
7.66798e-08
3.42858e-06
7.71113e-08
3.41239e-06
7.57669e-08
3.39525e-06
7.25844e-08
3.37748e-06
6.90453e-08
3.35933e-06
6.55382e-08
3.34101e-06
6.21076e-08
3.32273e-06
5.87714e-08
3.30465e-06
5.55467e-08
3.2869e-06
5.24435e-08
3.26957e-06
4.94697e-08
3.25274e-06
4.66433e-08
3.23644e-06
4.40289e-08
3.22077e-06
4.18548e-08
3.2072e-06
4.04359e-08
3.79718e-08
3.19969e-06
3.80922e-06
3.6571e-08
3.81785e-06
7.59904e-08
3.82009e-06
7.44468e-08
3.82216e-06
7.50407e-08
3.82295e-06
7.49706e-08
3.82242e-06
7.31123e-08
3.8209e-06
7.05651e-08
3.81863e-06
6.78099e-08
3.81578e-06
6.4956e-08
3.8125e-06
6.2056e-08
3.80889e-06
5.91536e-08
3.80505e-06
5.62794e-08
3.80107e-06
5.34556e-08
3.797e-06
5.07073e-08
3.79295e-06
4.80799e-08
3.78916e-06
4.56485e-08
3.7863e-06
4.32997e-08
3.95044e-08
3.78476e-06
4.20601e-06
3.51148e-08
4.21523e-06
6.67778e-08
4.21956e-06
7.01097e-08
4.2232e-06
7.14043e-08
4.22618e-06
7.1987e-08
4.22845e-06
7.08478e-08
4.23022e-06
6.87985e-08
4.23163e-06
6.63915e-08
4.23278e-06
6.38046e-08
4.23372e-06
6.11158e-08
4.2345e-06
5.83799e-08
4.23514e-06
5.56338e-08
4.2357e-06
5.29004e-08
4.23621e-06
5.01959e-08
4.23676e-06
4.75309e-08
4.23753e-06
4.48768e-08
4.23883e-06
4.19956e-08
3.79054e-08
4.24043e-06
4.64072e-06
3.17039e-08
4.64866e-06
5.88404e-08
4.65361e-06
6.51572e-08
4.65778e-06
6.72368e-08
4.66159e-06
6.81725e-08
4.66495e-06
6.74888e-08
4.66794e-06
6.58054e-08
4.67067e-06
6.36678e-08
4.67318e-06
6.12925e-08
4.67552e-06
5.87742e-08
4.67772e-06
5.61742e-08
4.67982e-06
5.3532e-08
4.68186e-06
5.08696e-08
4.68386e-06
4.81946e-08
4.68589e-06
4.54939e-08
4.68807e-06
4.27018e-08
4.69045e-06
3.96141e-08
3.57579e-08
4.6926e-06
5.11835e-06
2.79539e-08
5.12555e-06
5.16398e-08
5.13106e-06
5.96432e-08
5.13578e-06
6.25146e-08
5.14016e-06
6.37929e-08
5.14413e-06
6.35167e-08
5.14775e-06
6.21896e-08
5.1511e-06
6.032e-08
5.15424e-06
5.81505e-08
5.15722e-06
5.57944e-08
5.16007e-06
5.33213e-08
5.16283e-06
5.07752e-08
5.16552e-06
4.81785e-08
5.16818e-06
4.55344e-08
5.17085e-06
4.28215e-08
5.17358e-06
3.99735e-08
5.17634e-06
3.68497e-08
3.32417e-08
5.17886e-06
5.64454e-06
2.44195e-08
5.65123e-06
4.49566e-08
5.65709e-06
5.37792e-08
5.66225e-06
5.73545e-08
5.66706e-06
5.89799e-08
5.6715e-06
5.90766e-08
5.6756e-06
5.80915e-08
5.67943e-06
5.64891e-08
5.68305e-06
5.45276e-08
5.68651e-06
5.23373e-08
5.68983e-06
4.99966e-08
5.69306e-06
4.75542e-08
5.6962e-06
4.5035e-08
5.69929e-06
4.24429e-08
5.70235e-06
3.97596e-08
5.70539e-06
3.69373e-08
5.70834e-06
3.38991e-08
3.05828e-08
5.711e-06
4.40852e-06
2.20082e-08
4.41294e-06
4.05387e-08
4.41725e-06
4.94696e-08
4.42116e-06
5.34435e-08
4.42483e-06
5.53077e-08
4.42827e-06
5.56363e-08
4.43149e-06
5.48771e-08
4.43451e-06
5.34643e-08
4.43738e-06
5.1656e-08
4.44013e-06
4.95911e-08
4.44277e-06
4.73537e-08
4.44533e-06
4.49962e-08
4.44782e-06
4.2546e-08
4.45025e-06
4.00103e-08
4.45264e-06
3.73771e-08
4.45496e-06
3.46151e-08
4.45717e-06
3.16818e-08
2.85767e-08
4.45918e-06
5.14231e-06
1.95508e-08
5.14681e-06
3.60416e-08
5.15144e-06
4.48417e-08
5.15579e-06
4.90887e-08
5.15995e-06
5.11508e-08
5.16389e-06
5.16936e-08
5.16761e-06
5.11563e-08
5.17114e-06
4.99396e-08
5.1745e-06
4.82969e-08
5.17772e-06
4.63724e-08
5.18081e-06
4.4255e-08
5.18381e-06
4.20005e-08
5.18672e-06
3.96401e-08
5.18954e-06
3.7186e-08
5.19228e-06
3.46353e-08
5.19492e-06
3.19741e-08
5.19742e-06
2.91882e-08
2.63142e-08
5.19968e-06
5.99826e-06
1.70792e-08
6.00278e-06
3.15289e-08
6.00766e-06
3.99556e-08
6.01243e-06
4.43223e-08
6.01706e-06
4.65162e-08
6.02152e-06
4.72363e-08
6.02577e-06
4.69034e-08
6.02983e-06
4.58801e-08
6.03372e-06
4.44095e-08
6.03746e-06
4.26379e-08
6.04105e-06
4.06571e-08
6.04453e-06
3.8526e-08
6.04789e-06
3.62801e-08
6.05114e-06
3.39381e-08
6.05426e-06
3.1507e-08
6.05725e-06
2.89888e-08
6.06005e-06
2.63903e-08
2.3764e-08
6.0626e-06
6.99672e-06
1.46243e-08
7.00119e-06
2.70602e-08
7.00628e-06
3.48674e-08
7.01142e-06
3.91817e-08
7.01651e-06
4.14241e-08
7.02148e-06
4.22677e-08
7.02628e-06
4.21073e-08
7.03089e-06
4.12644e-08
7.03533e-06
3.99659e-08
7.03962e-06
3.8356e-08
7.04375e-06
3.65274e-08
7.04773e-06
3.45413e-08
7.05157e-06
3.24375e-08
7.05527e-06
3.0241e-08
7.05881e-06
2.79686e-08
7.06216e-06
2.56344e-08
7.0653e-06
2.32585e-08
2.08963e-08
7.06816e-06
8.16143e-06
1.22129e-08
8.16581e-06
2.2672e-08
8.17105e-06
2.96349e-08
8.17652e-06
3.37091e-08
8.18205e-06
3.58982e-08
8.18752e-06
3.67971e-08
8.19286e-06
3.67649e-08
8.19804e-06
3.60805e-08
8.20306e-06
3.49486e-08
8.20791e-06
3.35062e-08
8.21259e-06
3.18445e-08
8.21711e-06
3.00259e-08
8.22145e-06
2.80934e-08
8.22562e-06
2.60775e-08
8.22958e-06
2.4002e-08
8.23333e-06
2.18892e-08
8.23682e-06
1.97651e-08
1.76813e-08
8.24004e-06
9.52008e-06
9.86202e-09
9.52437e-06
1.83785e-08
9.5297e-06
2.43068e-08
9.53546e-06
2.79463e-08
9.5414e-06
2.99616e-08
9.54736e-06
3.0834e-08
9.55325e-06
3.08746e-08
9.55902e-06
3.03182e-08
9.56462e-06
2.93422e-08
9.57006e-06
2.80711e-08
9.57531e-06
2.65914e-08
9.58037e-06
2.49638e-08
9.58523e-06
2.32329e-08
9.58988e-06
2.14323e-08
9.59429e-06
1.95898e-08
9.59845e-06
1.7731e-08
9.60233e-06
1.5883e-08
1.40902e-08
9.60592e-06
1.1105e-05
7.57446e-09
1.11092e-05
1.41703e-08
1.11146e-05
1.89095e-08
1.11206e-05
2.1926e-08
1.11269e-05
2.3632e-08
1.11334e-05
2.43835e-08
1.11398e-05
2.44311e-08
1.11462e-05
2.39641e-08
1.11524e-05
2.31279e-08
1.11585e-05
2.20293e-08
1.11643e-05
2.07453e-08
1.11699e-05
1.93324e-08
1.11753e-05
1.78332e-08
1.11805e-05
1.62811e-08
1.11854e-05
1.47044e-08
1.119e-05
1.31282e-08
1.11943e-05
1.1577e-08
1.00872e-08
1.11983e-05
1.29539e-05
5.33443e-09
1.2958e-05
1.00113e-08
1.29635e-05
1.34345e-08
1.29698e-05
1.56546e-08
1.29765e-05
1.69096e-08
1.29834e-05
1.74365e-08
1.29905e-05
1.74179e-08
1.29974e-05
1.69947e-08
1.30043e-05
1.62768e-08
1.3011e-05
1.53483e-08
1.30174e-05
1.42719e-08
1.30237e-05
1.30953e-08
1.30296e-05
1.18553e-08
1.30353e-05
1.05819e-08
1.30408e-05
9.29991e-09
1.30458e-05
8.03105e-09
1.30506e-05
6.79542e-09
5.62138e-09
1.30551e-05
1.51107e-05
3.10203e-09
1.51149e-05
5.82834e-09
1.51205e-05
7.81919e-09
1.51271e-05
9.08655e-09
1.51342e-05
9.7512e-09
1.51417e-05
9.94764e-09
1.51493e-05
9.78757e-09
1.5157e-05
9.36015e-09
1.51645e-05
8.73677e-09
1.51719e-05
7.97366e-09
1.5179e-05
7.11449e-09
1.51859e-05
6.19345e-09
1.51926e-05
5.2378e-09
1.51989e-05
4.26988e-09
1.52049e-05
3.30841e-09
1.52105e-05
2.36939e-09
1.52158e-05
1.46722e-09
6.2289e-10
1.52208e-05
1.76267e-05
8.05199e-10
1.76311e-05
1.48822e-09
1.7637e-05
1.91451e-09
1.7644e-05
2.08034e-09
1.76517e-05
2.02451e-09
1.76599e-05
1.79199e-09
1.76682e-05
1.42221e-09
1.76767e-05
9.489e-10
1.7685e-05
4.00829e-10
1.76932e-05
-1.98117e-10
1.77011e-05
-8.28304e-10
1.77088e-05
-1.47348e-09
1.77161e-05
-2.11994e-09
1.77232e-05
-2.75598e-09
1.77298e-05
-3.37157e-09
1.77362e-05
-3.95805e-09
1.77421e-05
-4.50746e-09
-5.0058e-09
1.77478e-05
1.78284e-05
-1.37161e-09
1.78325e-05
-2.64523e-09
1.78382e-05
-3.7451e-09
1.78449e-05
-4.6739e-09
1.78524e-05
-5.45576e-09
1.78603e-05
-6.12684e-09
1.78685e-05
-6.7171e-09
1.78767e-05
-7.24632e-09
1.78848e-05
-7.72764e-09
1.78928e-05
-8.16984e-09
1.79005e-05
-8.57823e-09
1.7908e-05
-8.95545e-09
1.79152e-05
-9.30228e-09
1.7922e-05
-9.61833e-09
1.79286e-05
-9.9025e-09
1.79348e-05
-1.01533e-08
1.79406e-05
-1.03687e-08
-1.05406e-08
1.79462e-05
1.58833e-05
-3.31954e-09
1.5887e-05
-6.35316e-09
1.58921e-05
-8.82545e-09
1.58981e-05
-1.07178e-08
1.59048e-05
-1.21202e-08
1.59118e-05
-1.31553e-08
1.5919e-05
-1.39189e-08
1.59262e-05
-1.44781e-08
1.59334e-05
-1.48837e-08
1.59404e-05
-1.5174e-08
1.59472e-05
-1.53766e-08
1.59538e-05
-1.55107e-08
1.596e-05
-1.55901e-08
1.59661e-05
-1.5624e-08
1.59718e-05
-1.56191e-08
1.59772e-05
-1.558e-08
1.59823e-05
-1.55093e-08
-1.54033e-08
1.59872e-05
1.41505e-05
-5.14408e-09
1.4154e-05
-9.85699e-09
1.41588e-05
-1.36181e-08
1.41644e-05
-1.63556e-08
1.41706e-05
-1.82632e-08
1.4177e-05
-1.95752e-08
1.41835e-05
-2.04505e-08
1.419e-05
-2.09981e-08
1.41965e-05
-2.13039e-08
1.42027e-05
-2.1433e-08
1.42088e-05
-2.14323e-08
1.42146e-05
-2.13349e-08
1.42202e-05
-2.1165e-08
1.42255e-05
-2.09402e-08
1.42305e-05
-2.06733e-08
1.42353e-05
-2.03737e-08
1.42399e-05
-2.00478e-08
-1.96956e-08
1.42442e-05
1.26068e-05
-6.88382e-09
1.26102e-05
-1.32995e-08
1.26149e-05
-1.83156e-08
1.26203e-05
-2.17684e-08
1.26261e-05
-2.40547e-08
1.26321e-05
-2.55528e-08
1.26381e-05
-2.64728e-08
1.26441e-05
-2.69608e-08
1.26499e-05
-2.71371e-08
1.26556e-05
-2.70908e-08
1.2661e-05
-2.68839e-08
1.26662e-05
-2.65608e-08
1.26712e-05
-2.61538e-08
1.2676e-05
-2.5687e-08
1.26805e-05
-2.51786e-08
1.26848e-05
-2.46425e-08
1.26888e-05
-2.40887e-08
-2.35211e-08
1.26926e-05
1.12314e-05
-8.50852e-09
1.12349e-05
-1.67918e-08
1.12397e-05
-2.30536e-08
1.12449e-05
-2.70468e-08
1.12505e-05
-2.95752e-08
1.12561e-05
-3.11714e-08
1.12617e-05
-3.2067e-08
1.12672e-05
-3.24445e-08
1.12725e-05
-3.24598e-08
1.12776e-05
-3.2222e-08
1.12825e-05
-3.18041e-08
1.12872e-05
-3.12581e-08
1.12917e-05
-3.06222e-08
1.12959e-05
-2.99249e-08
1.12999e-05
-2.9188e-08
1.13037e-05
-2.84282e-08
1.13073e-05
-2.76582e-08
-2.68847e-08
1.13107e-05
1.0006e-05
-9.90584e-09
1.00097e-05
-2.04553e-08
1.00146e-05
-2.79355e-08
1.00197e-05
-3.22202e-08
1.0025e-05
-3.4853e-08
1.00303e-05
-3.6465e-08
1.00355e-05
-3.7267e-08
1.00405e-05
-3.74858e-08
1.00454e-05
-3.73127e-08
1.005e-05
-3.68698e-08
1.00545e-05
-3.62368e-08
1.00587e-05
-3.54705e-08
1.00627e-05
-3.46132e-08
1.00665e-05
-3.36962e-08
1.007e-05
-3.27438e-08
1.00734e-05
-3.17767e-08
1.00765e-05
-3.0813e-08
-2.98685e-08
1.00795e-05
8.91406e-06
-1.08696e-08
8.91803e-06
-2.44207e-08
8.92307e-06
-3.29733e-08
8.92808e-06
-3.72369e-08
8.93309e-06
-3.98634e-08
8.93804e-06
-4.14078e-08
8.94281e-06
-4.20423e-08
8.94739e-06
-4.20599e-08
8.95175e-06
-4.16804e-08
8.95591e-06
-4.10286e-08
8.95986e-06
-4.01851e-08
8.9636e-06
-3.92087e-08
8.96713e-06
-3.81428e-08
8.97045e-06
-3.70191e-08
8.97357e-06
-3.58618e-08
8.97649e-06
-3.4691e-08
8.9792e-06
-3.3525e-08
-3.23798e-08
8.98171e-06
7.94096e-06
-1.11648e-08
7.94547e-06
-2.89288e-08
7.95052e-06
-3.80208e-08
7.95524e-06
-4.19573e-08
7.95994e-06
-4.45612e-08
7.96451e-06
-4.59756e-08
7.96884e-06
-4.63764e-08
7.97294e-06
-4.61558e-08
7.97681e-06
-4.55526e-08
7.98047e-06
-4.46866e-08
7.98392e-06
-4.36358e-08
7.98717e-06
-4.24589e-08
7.99022e-06
-4.1198e-08
7.99309e-06
-3.98834e-08
7.99576e-06
-3.85378e-08
7.99825e-06
-3.71817e-08
8.00057e-06
-3.58425e-08
-3.45644e-08
8.00276e-06
7.07291e-06
-9.74488e-09
7.07858e-06
-3.46016e-08
7.08338e-06
-4.282e-08
7.08758e-06
-4.61565e-08
7.09182e-06
-4.88004e-08
7.0959e-06
-5.00577e-08
7.09974e-06
-5.0212e-08
7.10334e-06
-4.97597e-08
7.10673e-06
-4.89391e-08
7.10991e-06
-4.78619e-08
7.11288e-06
-4.66069e-08
7.11565e-06
-4.52333e-08
7.11824e-06
-4.37827e-08
7.12064e-06
-4.22827e-08
7.12285e-06
-4.0751e-08
7.12487e-06
-3.91978e-08
7.12666e-06
-3.76326e-08
-3.60615e-08
7.12815e-06
6.29709e-06
-4.31862e-09
6.30527e-06
-4.27815e-08
6.3101e-06
-4.76519e-08
6.31411e-06
-5.01696e-08
6.31792e-06
-5.2614e-08
6.32129e-06
-5.3421e-08
6.32427e-06
-5.31915e-08
6.32697e-06
-5.24612e-08
6.32944e-06
-5.14105e-08
6.3317e-06
-5.01249e-08
6.33377e-06
-4.86761e-08
6.33566e-06
-4.71202e-08
6.33737e-06
-4.54967e-08
6.33892e-06
-4.38311e-08
6.34031e-06
-4.21364e-08
6.34152e-06
-4.04141e-08
6.34256e-06
-3.86677e-08
-3.69058e-08
6.3434e-06
5.60106e-06
9.51977e-09
5.61058e-06
-5.23021e-08
5.61458e-06
-5.16505e-08
5.6189e-06
-5.44841e-08
5.62274e-06
-5.64582e-08
5.62557e-06
-5.6256e-08
5.62756e-06
-5.51789e-08
5.62889e-06
-5.37904e-08
5.62969e-06
-5.22067e-08
5.63004e-06
-5.04808e-08
5.63003e-06
-4.86645e-08
5.62971e-06
-4.67997e-08
5.62913e-06
-4.4915e-08
5.62833e-06
-4.30278e-08
5.62733e-06
-4.11421e-08
5.62616e-06
-3.92389e-08
5.62475e-06
-3.72605e-08
-3.49474e-08
5.62279e-06
5.00884e-06
2.98369e-09
5.00511e-06
-4.85656e-08
4.99663e-06
-4.31706e-08
4.98994e-06
-4.77974e-08
4.98309e-06
-4.96124e-08
4.9757e-06
-4.88583e-08
4.96771e-06
-4.71891e-08
4.95912e-06
-4.52047e-08
4.94999e-06
-4.30793e-08
4.94042e-06
-4.09025e-08
4.93049e-06
-3.87358e-08
4.92031e-06
-3.66187e-08
4.90997e-06
-3.45735e-08
4.89955e-06
-3.26107e-08
4.88914e-06
-3.07293e-08
4.87881e-06
-2.89085e-08
4.86863e-06
-2.70814e-08
-2.48136e-08
4.85849e-06
4.45953e-06
4.41097e-06
4.3678e-06
4.32e-06
4.27039e-06
4.22153e-06
4.17434e-06
4.12913e-06
4.08606e-06
4.04515e-06
4.00642e-06
3.9698e-06
3.93523e-06
3.90261e-06
3.87189e-06
3.84298e-06
3.8159e-06
3.79108e-06
1.47434e-08
-1.47435e-08
2.71562e-08
-1.24143e-08
3.25528e-08
-5.39737e-09
3.03315e-08
2.22028e-09
2.11068e-08
9.22416e-09
6.11872e-09
1.49876e-08
-1.33032e-08
1.94209e-08
-3.58266e-08
2.25225e-08
-6.04973e-08
2.46694e-08
-8.67672e-08
2.62687e-08
-1.1432e-07
2.75511e-08
-1.42946e-07
2.86249e-08
-1.72485e-07
2.95383e-08
-2.02801e-07
3.03145e-08
-2.3377e-07
3.09674e-08
-2.6528e-07
3.15086e-08
-2.9723e-07
3.19497e-08
-3.29534e-07
3.23024e-08
-3.62113e-07
3.25787e-08
-3.94903e-07
3.279e-08
-4.2785e-07
3.29472e-08
-4.6091e-07
3.30603e-08
-4.94047e-07
3.31382e-08
-5.27235e-07
3.31889e-08
-5.60454e-07
3.32193e-08
-5.93689e-07
3.32352e-08
-6.2693e-07
3.32416e-08
-6.60173e-07
3.32424e-08
-6.93415e-07
3.32408e-08
-7.26655e-07
3.32393e-08
-7.59896e-07
3.32397e-08
-7.9314e-07
3.32433e-08
-8.26392e-07
3.32509e-08
-8.59656e-07
3.32631e-08
-8.92936e-07
3.32803e-08
-9.26239e-07
3.33028e-08
-9.59569e-07
3.33311e-08
-9.92934e-07
3.33657e-08
-1.02634e-06
3.34109e-08
-1.05982e-06
3.34793e-08
-1.0934e-06
3.35789e-08
-1.1271e-06
3.37022e-08
-1.16094e-06
3.384e-08
-1.19493e-06
3.39864e-08
-1.22906e-06
3.41371e-08
-1.26335e-06
3.42887e-08
-1.29779e-06
3.44386e-08
-1.33238e-06
3.45842e-08
-1.3671e-06
3.47235e-08
-1.40195e-06
3.48542e-08
-1.43693e-06
3.49747e-08
-1.47201e-06
3.5083e-08
-1.50719e-06
3.51774e-08
-1.54244e-06
3.52562e-08
-1.57776e-06
3.53178e-08
-1.61312e-06
3.53606e-08
-1.64851e-06
3.5383e-08
-1.68389e-06
3.53837e-08
-1.71925e-06
3.53612e-08
-1.75457e-06
3.53141e-08
-1.78981e-06
3.5241e-08
-1.82495e-06
3.51405e-08
-1.85996e-06
3.50112e-08
-1.89481e-06
3.48518e-08
-1.92947e-06
3.46608e-08
-1.96391e-06
3.44371e-08
-1.99809e-06
3.41793e-08
-2.03198e-06
3.38864e-08
-2.06553e-06
3.35569e-08
-2.09872e-06
3.31897e-08
-2.13151e-06
3.27834e-08
-2.16384e-06
3.23365e-08
-2.19569e-06
3.18475e-08
-2.227e-06
3.13151e-08
-2.25774e-06
3.07378e-08
-2.28785e-06
3.01139e-08
-2.3173e-06
2.94422e-08
-2.34602e-06
2.87211e-08
-2.37397e-06
2.79492e-08
-2.40109e-06
2.71252e-08
-2.42734e-06
2.6248e-08
-2.45266e-06
2.53162e-08
-2.47698e-06
2.43289e-08
-2.50027e-06
2.32851e-08
-2.52245e-06
2.21842e-08
-2.54348e-06
2.1026e-08
-2.56329e-06
1.98107e-08
-2.58183e-06
1.85389e-08
-2.59904e-06
1.72116e-08
-2.61487e-06
1.58302e-08
-2.62927e-06
1.43965e-08
-2.64218e-06
1.29131e-08
-2.65357e-06
1.13834e-08
-2.66338e-06
9.8114e-09
-2.67158e-06
8.20123e-09
-2.67814e-06
6.55757e-09
-2.68302e-06
4.8853e-09
-2.68621e-06
3.18948e-09
-2.68768e-06
1.47384e-09
-2.68742e-06
-2.60844e-10
-2.68543e-06
-1.99342e-09
-2.68173e-06
-3.70404e-09
-2.67633e-06
-5.39529e-09
-2.66927e-06
-7.06625e-09
-2.66055e-06
-8.71554e-09
-2.65021e-06
-1.03417e-08
-2.63826e-06
-1.19434e-08
-2.62474e-06
-1.3519e-08
-2.60968e-06
-1.50665e-08
-2.5931e-06
-1.65839e-08
-2.57503e-06
-1.80697e-08
-2.5555e-06
-1.95226e-08
-2.53456e-06
-2.09412e-08
-2.51224e-06
-2.23245e-08
-2.48857e-06
-2.36711e-08
-2.46359e-06
-2.49806e-08
-2.43733e-06
-2.62526e-08
-2.40985e-06
-2.74864e-08
-2.38116e-06
-2.86817e-08
-2.35132e-06
-2.98388e-08
-2.32036e-06
-3.09591e-08
-2.28832e-06
-3.2044e-08
-2.25522e-06
-3.30946e-08
-2.22111e-06
-3.41118e-08
-2.18601e-06
-3.50979e-08
-2.14996e-06
-3.60553e-08
-2.11298e-06
-3.6986e-08
-2.07509e-06
-3.78909e-08
-2.03631e-06
-3.87724e-08
-1.99668e-06
-3.96342e-08
-1.9562e-06
-4.04802e-08
-1.91489e-06
-4.13128e-08
-1.87275e-06
-4.21348e-08
-1.8298e-06
-4.29508e-08
-1.78604e-06
-4.37649e-08
-1.74146e-06
-4.45782e-08
-1.69607e-06
-4.53918e-08
-1.64986e-06
-4.62099e-08
-1.60282e-06
-4.70372e-08
-1.55494e-06
-4.7876e-08
-1.50621e-06
-4.87295e-08
-1.45662e-06
-4.95996e-08
-1.40613e-06
-5.04863e-08
-1.35473e-06
-5.13925e-08
-1.30241e-06
-5.23205e-08
-1.24914e-06
-5.32738e-08
-1.19488e-06
-5.42539e-08
-1.13962e-06
-5.52574e-08
-1.08334e-06
-5.628e-08
-1.026e-06
-5.73385e-08
-9.67575e-07
-5.84315e-08
-9.08054e-07
-5.95291e-08
-8.47398e-07
-6.06604e-08
-7.85575e-07
-6.18261e-08
-7.22605e-07
-6.29713e-08
-6.58429e-07
-6.41741e-08
-5.93038e-07
-6.53952e-08
-5.26428e-07
-6.66051e-08
-4.58562e-07
-6.78669e-08
-3.89513e-07
-6.90484e-08
-3.1915e-07
-7.03632e-08
-2.47576e-07
-7.15766e-08
-1.74843e-07
-7.2726e-08
-1.00674e-07
-7.41653e-08
-2.49594e-08
-7.57078e-08
5.14829e-08
-7.64396e-08
1.27906e-07
-7.64182e-08
2.04525e-07
-7.66189e-08
2.81467e-07
-7.6943e-08
3.5872e-07
-7.72517e-08
4.36206e-07
-7.74825e-08
5.13748e-07
-7.75462e-08
5.91106e-07
-7.73572e-08
6.67887e-07
-7.67827e-08
7.43485e-07
-7.55984e-08
8.16795e-07
-7.33105e-08
8.85953e-07
-6.91516e-08
9.4613e-07
-6.01723e-08
9.89163e-07
-4.30271e-08
8.83973e-09
9.80328e-07
3.93962e-09
-1.86836e-08
-1.65166e-12
-8.47396e-09
-9.72453e-09
4.3251e-09
-2.32451e-08
1.57398e-08
-3.95373e-08
2.55152e-08
-5.82065e-08
3.36553e-08
-7.89798e-08
4.01924e-08
-1.01727e-07
4.52672e-08
-1.2624e-07
4.91803e-08
-1.52221e-07
5.22477e-08
-1.79379e-07
5.47069e-08
-2.07473e-07
5.67162e-08
-2.36312e-07
5.83749e-08
-2.65746e-07
5.97464e-08
-2.95655e-07
6.08744e-08
-3.2594e-07
6.17924e-08
-3.56519e-07
6.25285e-08
-3.87326e-07
6.3108e-08
-4.18301e-07
6.35544e-08
-4.494e-07
6.38891e-08
-4.80585e-07
6.41319e-08
-5.11825e-07
6.43009e-08
-5.43098e-07
6.44122e-08
-5.74389e-07
6.44801e-08
-6.05687e-07
6.45169e-08
-6.36986e-07
6.45333e-08
-6.68284e-07
6.45383e-08
-6.99582e-07
6.45394e-08
-7.30885e-07
6.45425e-08
-7.62201e-07
6.45526e-08
-7.93536e-07
6.45733e-08
-8.24901e-07
6.46076e-08
-8.56308e-07
6.46573e-08
-8.87769e-07
6.47239e-08
-9.19297e-07
6.48084e-08
-9.50904e-07
6.49116e-08
-9.82606e-07
6.5034e-08
-1.01441e-06
6.51768e-08
-1.04635e-06
6.53427e-08
-1.0784e-06
6.55358e-08
-1.11058e-06
6.57563e-08
-1.14287e-06
6.59991e-08
-1.17529e-06
6.62573e-08
-1.20783e-06
6.65249e-08
-1.24049e-06
6.67963e-08
-1.27327e-06
6.70667e-08
-1.30616e-06
6.73315e-08
-1.33916e-06
6.75865e-08
-1.37227e-06
6.78278e-08
-1.40546e-06
6.80517e-08
-1.43874e-06
6.82545e-08
-1.47209e-06
6.84328e-08
-1.5055e-06
6.85833e-08
-1.53894e-06
6.87029e-08
-1.57242e-06
6.87884e-08
-1.60589e-06
6.88368e-08
-1.63935e-06
6.88452e-08
-1.67278e-06
6.88108e-08
-1.70615e-06
6.87308e-08
-1.73944e-06
6.86025e-08
-1.77262e-06
6.84232e-08
-1.80567e-06
6.81902e-08
-1.83856e-06
6.79009e-08
-1.87126e-06
6.75528e-08
-1.90375e-06
6.71433e-08
-1.93598e-06
6.66701e-08
-1.96793e-06
6.61308e-08
-1.99957e-06
6.5523e-08
-2.03086e-06
6.48442e-08
-2.06176e-06
6.40917e-08
-2.09224e-06
6.32629e-08
-2.12226e-06
6.23551e-08
-2.15177e-06
6.13654e-08
-2.18075e-06
6.0291e-08
-2.20914e-06
5.9129e-08
-2.2369e-06
5.78765e-08
-2.26399e-06
5.65306e-08
-2.29036e-06
5.50885e-08
-2.31595e-06
5.35473e-08
-2.34073e-06
5.19044e-08
-2.36464e-06
5.01572e-08
-2.38763e-06
4.8303e-08
-2.40964e-06
4.63398e-08
-2.43062e-06
4.42657e-08
-2.45052e-06
4.20796e-08
-2.46927e-06
3.97808e-08
-2.48683e-06
3.73697e-08
-2.50314e-06
3.48469e-08
-2.51814e-06
3.22141e-08
-2.53179e-06
2.94741e-08
-2.54402e-06
2.66307e-08
-2.5548e-06
2.36893e-08
-2.56407e-06
2.06561e-08
-2.5718e-06
1.75386e-08
-2.57794e-06
1.4345e-08
-2.58247e-06
1.10843e-08
-2.58535e-06
7.76613e-09
-2.58656e-06
4.39892e-09
-2.58607e-06
9.88988e-10
-2.58389e-06
-2.44167e-09
-2.58003e-06
-5.85483e-09
-2.5745e-06
-9.23149e-09
-2.56733e-06
-1.25712e-08
-2.55852e-06
-1.58718e-08
-2.54811e-06
-1.91307e-08
-2.5361e-06
-2.2345e-08
-2.52254e-06
-2.55113e-08
-2.50743e-06
-2.86262e-08
-2.49081e-06
-3.16861e-08
-2.47271e-06
-3.46879e-08
-2.45315e-06
-3.7629e-08
-2.43216e-06
-4.05066e-08
-2.40978e-06
-4.33183e-08
-2.38605e-06
-4.60618e-08
-2.36098e-06
-4.87355e-08
-2.33462e-06
-5.13379e-08
-2.30701e-06
-5.38678e-08
-2.27817e-06
-5.63241e-08
-2.24815e-06
-5.87068e-08
-2.21697e-06
-6.10172e-08
-2.18467e-06
-6.32574e-08
-2.15129e-06
-6.54292e-08
-2.11684e-06
-6.75353e-08
-2.08138e-06
-6.95791e-08
-2.04491e-06
-7.15649e-08
-2.00747e-06
-7.34969e-08
-1.96907e-06
-7.53784e-08
-1.92975e-06
-7.72134e-08
-1.88952e-06
-7.90068e-08
-1.84839e-06
-8.07642e-08
-1.80638e-06
-8.2491e-08
-1.7635e-06
-8.41932e-08
-1.71975e-06
-8.58786e-08
-1.67515e-06
-8.75557e-08
-1.62968e-06
-8.92308e-08
-1.58335e-06
-9.0907e-08
-1.53616e-06
-9.25878e-08
-1.48809e-06
-9.42785e-08
-1.43914e-06
-9.5986e-08
-1.3893e-06
-9.77189e-08
-1.33855e-06
-9.9487e-08
-1.28686e-06
-1.01291e-07
-1.23423e-06
-1.03126e-07
-1.18062e-06
-1.04995e-07
-1.12603e-06
-1.06908e-07
-1.07043e-06
-1.08881e-07
-1.01378e-06
-1.10906e-07
-9.56067e-07
-1.1297e-07
-8.97272e-07
-1.15075e-07
-8.37361e-07
-1.17249e-07
-7.76301e-07
-1.19484e-07
-7.14085e-07
-1.2174e-07
-6.50682e-07
-1.2406e-07
-5.86059e-07
-1.26444e-07
-5.2022e-07
-1.28812e-07
-4.53131e-07
-1.31264e-07
-3.84769e-07
-1.3376e-07
-3.15134e-07
-1.36238e-07
-2.44203e-07
-1.38801e-07
-1.71965e-07
-1.41289e-07
-9.846e-08
-1.43861e-07
-2.34649e-08
-1.46576e-07
5.27319e-08
-1.48924e-07
1.29581e-07
-1.51018e-07
2.07155e-07
-1.53286e-07
2.85463e-07
-1.54748e-07
3.64392e-07
-1.55347e-07
4.4379e-07
-1.56019e-07
5.2354e-07
-1.56686e-07
6.0353e-07
-1.57243e-07
6.83628e-07
-1.57574e-07
7.63634e-07
-1.57549e-07
8.43282e-07
-1.57001e-07
9.22181e-07
-1.55676e-07
9.99738e-07
-1.53157e-07
1.07504e-06
-1.48609e-07
1.14649e-06
-1.4061e-07
1.2117e-06
-1.25382e-07
1.26563e-06
-9.69685e-08
-3.64844e-08
1.31096e-06
-8.62359e-09
-1.00606e-08
-2.36427e-08
6.54559e-09
-4.05595e-08
2.12421e-08
-5.84498e-08
3.36298e-08
-7.72492e-08
4.43147e-08
-9.70501e-08
5.34559e-08
-1.1798e-07
6.11223e-08
-1.40136e-07
6.74228e-08
-1.63496e-07
7.25397e-08
-1.87933e-07
7.66847e-08
-2.13279e-07
8.00525e-08
-2.39365e-07
8.28011e-08
-2.66041e-07
8.50502e-08
-2.93184e-07
8.68893e-08
-3.20697e-07
8.83861e-08
-3.48499e-07
8.95939e-08
-3.76527e-07
9.05569e-08
-4.04733e-07
9.13129e-08
-4.33074e-07
9.18954e-08
-4.61519e-07
9.23344e-08
-4.90043e-07
9.26568e-08
-5.18629e-07
9.28865e-08
-5.47261e-07
9.3045e-08
-5.75931e-07
9.31509e-08
-6.04635e-07
9.32205e-08
-6.3337e-07
9.3268e-08
-6.62137e-07
9.33051e-08
-6.90939e-07
9.33417e-08
-7.19784e-07
9.33859e-08
-7.48676e-07
9.3444e-08
-7.77625e-07
9.35212e-08
-8.06639e-07
9.3621e-08
-8.35728e-07
9.37463e-08
-8.64903e-07
9.38988e-08
-8.94174e-07
9.40794e-08
-9.2355e-07
9.42885e-08
-9.53041e-07
9.45261e-08
-9.82655e-07
9.47919e-08
-1.0124e-06
9.50856e-08
-1.04227e-06
9.54065e-08
-1.07226e-06
9.57518e-08
-1.10238e-06
9.61166e-08
-1.13262e-06
9.64947e-08
-1.16297e-06
9.68801e-08
-1.19344e-06
9.72664e-08
-1.22402e-06
9.76478e-08
-1.25471e-06
9.80185e-08
-1.2855e-06
9.83729e-08
-1.31637e-06
9.87056e-08
-1.34733e-06
9.90115e-08
-1.37837e-06
9.92855e-08
-1.40946e-06
9.95229e-08
-1.44059e-06
9.97188e-08
-1.47176e-06
9.98688e-08
-1.50294e-06
9.99683e-08
-1.53411e-06
1.00013e-07
-1.56527e-06
9.99991e-08
-1.59638e-06
9.99221e-08
-1.62743e-06
9.97782e-08
-1.65839e-06
9.95634e-08
-1.68924e-06
9.92738e-08
-1.71995e-06
9.89058e-08
-1.75051e-06
9.84555e-08
-1.78087e-06
9.79193e-08
-1.81103e-06
9.72936e-08
-1.84093e-06
9.65751e-08
-1.87056e-06
9.57601e-08
-1.89988e-06
9.48452e-08
-1.92887e-06
9.38267e-08
-1.95748e-06
9.27008e-08
-1.98568e-06
9.14637e-08
-2.01343e-06
9.01115e-08
-2.04071e-06
8.86399e-08
-2.06746e-06
8.7045e-08
-2.09365e-06
8.53226e-08
-2.11924e-06
8.34682e-08
-2.14419e-06
8.14776e-08
-2.16845e-06
7.93465e-08
-2.19197e-06
7.70706e-08
-2.21471e-06
7.46457e-08
-2.23662e-06
7.20678e-08
-2.25765e-06
6.9333e-08
-2.27775e-06
6.64379e-08
-2.29687e-06
6.33797e-08
-2.31494e-06
6.01563e-08
-2.33193e-06
5.67667e-08
-2.34777e-06
5.32104e-08
-2.36241e-06
4.94886e-08
-2.3758e-06
4.56033e-08
-2.38788e-06
4.15583e-08
-2.39861e-06
3.73595e-08
-2.40794e-06
3.3014e-08
-2.41581e-06
2.85311e-08
-2.4222e-06
2.39215e-08
-2.42705e-06
1.91973e-08
-2.43034e-06
1.43722e-08
-2.43203e-06
9.46045e-09
-2.43211e-06
4.47608e-09
-2.43055e-06
-5.69569e-10
-2.42736e-06
-5.63114e-09
-2.42256e-06
-1.06586e-08
-2.41615e-06
-1.56398e-08
-2.40815e-06
-2.05691e-08
-2.39858e-06
-2.54422e-08
-2.38746e-06
-3.02547e-08
-2.3748e-06
-3.50021e-08
-2.36063e-06
-3.96795e-08
-2.34498e-06
-4.42817e-08
-2.32786e-06
-4.8804e-08
-2.3093e-06
-5.3242e-08
-2.28934e-06
-5.75915e-08
-2.268e-06
-6.18488e-08
-2.24531e-06
-6.60104e-08
-2.2213e-06
-7.00734e-08
-2.19599e-06
-7.40355e-08
-2.16944e-06
-7.78946e-08
-2.14166e-06
-8.16488e-08
-2.11268e-06
-8.52972e-08
-2.08255e-06
-8.88399e-08
-2.05129e-06
-9.22787e-08
-2.01893e-06
-9.56161e-08
-1.9855e-06
-9.88551e-08
-1.95104e-06
-1.02e-07
-1.91556e-06
-1.05056e-07
-1.8791e-06
-1.0803e-07
-1.84167e-06
-1.10927e-07
-1.80329e-06
-1.13754e-07
-1.76399e-06
-1.16516e-07
-1.72378e-06
-1.1922e-07
-1.68267e-06
-1.21874e-07
-1.64067e-06
-1.24486e-07
-1.5978e-06
-1.27064e-07
-1.55406e-06
-1.29622e-07
-1.50944e-06
-1.3217e-07
-1.46396e-06
-1.34718e-07
-1.41759e-06
-1.37271e-07
-1.37034e-06
-1.39835e-07
-1.32221e-06
-1.42415e-07
-1.27317e-06
-1.45022e-07
-1.22322e-06
-1.47668e-07
-1.17234e-06
-1.50368e-07
-1.12051e-06
-1.53124e-07
-1.0677e-06
-1.5593e-07
-1.01391e-06
-1.58788e-07
-9.59107e-07
-1.6171e-07
-9.03268e-07
-1.6472e-07
-8.46363e-07
-1.67812e-07
-7.88371e-07
-1.70963e-07
-7.29274e-07
-1.74173e-07
-6.6904e-07
-1.77485e-07
-6.07637e-07
-1.80889e-07
-5.45053e-07
-1.84325e-07
-4.81264e-07
-1.87849e-07
-4.16237e-07
-1.9147e-07
-3.49966e-07
-1.95084e-07
-2.82429e-07
-1.98799e-07
-2.13598e-07
-2.02591e-07
-1.43476e-07
-2.06359e-07
-7.20535e-08
-2.10223e-07
7.63475e-10
-2.14106e-07
7.47139e-08
-2.1781e-07
1.49564e-07
-2.21426e-07
2.25376e-07
-2.24735e-07
3.0203e-07
-2.27672e-07
3.79323e-07
-2.30578e-07
4.57332e-07
-2.32757e-07
5.36118e-07
-2.34133e-07
6.15442e-07
-2.35343e-07
6.95131e-07
-2.36374e-07
7.75025e-07
-2.37138e-07
8.54955e-07
-2.37504e-07
9.34708e-07
-2.37302e-07
1.01401e-06
-2.36301e-07
1.09248e-06
-2.34148e-07
1.1696e-06
-2.30272e-07
1.24461e-06
-2.23621e-07
1.31642e-06
-2.12415e-07
1.38382e-06
-1.92788e-07
1.44575e-06
-1.58894e-07
-9.87114e-08
1.50798e-06
-1.69712e-08
6.91068e-09
-3.71521e-08
2.67268e-08
-5.74906e-08
4.15812e-08
-7.78158e-08
5.3955e-08
-9.82162e-08
6.47151e-08
-1.18859e-07
7.4099e-08
-1.39927e-07
8.21902e-08
-1.61566e-07
8.90615e-08
-1.83847e-07
9.48202e-08
-2.06765e-07
9.96029e-08
-2.30266e-07
1.03553e-07
-2.54271e-07
1.06806e-07
-2.78697e-07
1.09476e-07
-3.03468e-07
1.11659e-07
-3.28517e-07
1.13436e-07
-3.53793e-07
1.14869e-07
-3.79251e-07
1.16015e-07
-4.04858e-07
1.1692e-07
-4.30587e-07
1.17624e-07
-4.56417e-07
1.18164e-07
-4.82333e-07
1.18573e-07
-5.08323e-07
1.18877e-07
-5.3438e-07
1.19102e-07
-5.605e-07
1.19271e-07
-5.8668e-07
1.19401e-07
-6.1292e-07
1.19509e-07
-6.39224e-07
1.19609e-07
-6.65595e-07
1.19712e-07
-6.92038e-07
1.19828e-07
-7.18558e-07
1.19964e-07
-7.45163e-07
1.20126e-07
-7.7186e-07
1.20318e-07
-7.98656e-07
1.20542e-07
-8.25559e-07
1.20801e-07
-8.52575e-07
1.21096e-07
-8.79711e-07
1.21425e-07
-9.06972e-07
1.21788e-07
-9.34362e-07
1.22183e-07
-9.61883e-07
1.22607e-07
-9.89534e-07
1.23059e-07
-1.01731e-06
1.23532e-07
-1.04522e-06
1.24022e-07
-1.07325e-06
1.24522e-07
-1.10139e-06
1.25027e-07
-1.12965e-06
1.25527e-07
-1.15803e-06
1.26018e-07
-1.1865e-06
1.26492e-07
-1.21507e-06
1.26942e-07
-1.24373e-06
1.27363e-07
-1.27246e-06
1.27746e-07
-1.30126e-06
1.28087e-07
-1.33012e-06
1.28379e-07
-1.35901e-06
1.28615e-07
-1.38794e-06
1.28792e-07
-1.41687e-06
1.28901e-07
-1.4458e-06
1.28939e-07
-1.4747e-06
1.289e-07
-1.50355e-06
1.28778e-07
-1.53234e-06
1.28569e-07
-1.56105e-06
1.28267e-07
-1.58964e-06
1.27868e-07
-1.6181e-06
1.27366e-07
-1.6464e-06
1.26758e-07
-1.67452e-06
1.26038e-07
-1.70243e-06
1.25201e-07
-1.7301e-06
1.24245e-07
-1.7575e-06
1.23163e-07
-1.78461e-06
1.21951e-07
-1.81139e-06
1.20605e-07
-1.83781e-06
1.1912e-07
-1.86383e-06
1.17491e-07
-1.88943e-06
1.15712e-07
-1.91457e-06
1.13779e-07
-1.93921e-06
1.11687e-07
-1.96332e-06
1.09429e-07
-1.98685e-06
1.07e-07
-2.00977e-06
1.04395e-07
-2.03203e-06
1.01607e-07
-2.05359e-06
9.86307e-08
-2.0744e-06
9.54609e-08
-2.09443e-06
9.20916e-08
-2.11361e-06
8.85177e-08
-2.13191e-06
8.47344e-08
-2.14927e-06
8.07376e-08
-2.16563e-06
7.65241e-08
-2.18096e-06
7.2092e-08
-2.19519e-06
6.74405e-08
-2.20827e-06
6.25703e-08
-2.22015e-06
5.74839e-08
-2.23078e-06
5.21861e-08
-2.2401e-06
4.66839e-08
-2.24808e-06
4.09867e-08
-2.25465e-06
3.51063e-08
-2.25979e-06
2.90565e-08
-2.26344e-06
2.28535e-08
-2.26559e-06
1.65153e-08
-2.26619e-06
1.00609e-08
-2.26522e-06
3.50964e-09
-2.26268e-06
-3.10732e-09
-2.25858e-06
-9.73106e-09
-2.25293e-06
-1.63133e-08
-2.24573e-06
-2.2838e-08
-2.237e-06
-2.92968e-08
-2.22676e-06
-3.56831e-08
-2.21502e-06
-4.19911e-08
-2.20181e-06
-4.82143e-08
-2.18715e-06
-5.43465e-08
-2.17105e-06
-6.03812e-08
-2.15354e-06
-6.63121e-08
-2.13465e-06