/*--------------------------------*- C++ -*----------------------------------*\
| =========                 |                                                 |
| \\      /  F ield         | OpenFOAM: The Open Source CFD Toolbox           |
|  \\    /   O peration     | Version:  2.2.x                                 |
|   \\  /    A nd           | Web:      www.OpenFOAM.org                      |
|    \\/     M anipulation  |                                                 |
\*---------------------------------------------------------------------------*/
FoamFile
{
    version     2.0;
    format      ascii;
    class       volVectorField;
    location    "650";
    object      U;
}
// * * * * * * * * * * * * * * * * * * * * * * * * * * * * * * * * * * * * * //

dimensions      [0 1 -1 0 0 0 0];

internalField   nonuniform List<vector> 
12225
(
(9.83972 -1.23842 0)
(9.73872 -0.73149 0)
(9.53698 -0.467335 0)
(9.32319 -0.307409 0)
(9.1244 -0.205961 0)
(8.94081 -0.1396 0)
(8.77073 -0.0949564 0)
(8.61336 -0.0642677 0)
(8.46796 -0.0428322 0)
(8.33358 -0.0276738 0)
(8.2093 -0.016851 0)
(8.09427 -0.00906939 0)
(7.98772 -0.00344883 0)
(7.88896 0.000624159 0)
(7.79726 0.00360882 0)
(7.71177 0.00603646 0)
(7.62661 0.00947421 0)
(7.5615 -0.0194299 0)
(10.0335 0.447389 0)
(10.0226 0.426929 0)
(9.98834 0.340232 0)
(9.94294 0.270974 0)
(9.89659 0.217797 0)
(9.84855 0.177206 0)
(9.79813 0.14665 0)
(9.74602 0.12366 0)
(9.6931 0.10621 0)
(9.64004 0.0928114 0)
(9.58734 0.0823926 0)
(9.53542 0.0741811 0)
(9.4846 0.0676193 0)
(9.43513 0.0623147 0)
(9.38718 0.058037 0)
(9.34093 0.0549165 0)
(9.29789 0.0541467 0)
(9.26349 0.0680653 0)
(9.9929 0.0267768 0)
(10.0022 -0.00877409 0)
(10.0178 -0.0275886 0)
(10.0247 -0.0224576 0)
(10.0278 -0.0110998 0)
(10.0282 0.000212187 0)
(10.0255 0.0102859 0)
(10.0204 0.0188145 0)
(10.0136 0.0257648 0)
(10.0055 0.0312806 0)
(9.99636 0.0355727 0)
(9.98654 0.0388521 0)
(9.97624 0.0413075 0)
(9.96564 0.043112 0)
(9.95494 0.0444565 0)
(9.94451 0.0456297 0)
(9.93548 0.0467842 0)
(9.92816 0.0447942 0)
(9.99998 0.0196735 0)
(10.0123 0.0433481 0)
(10.0308 0.0556647 0)
(10.0411 0.0652649 0)
(10.0483 0.0706267 0)
(10.0544 0.072353 0)
(10.0592 0.0721222 0)
(10.0629 0.0709653 0)
(10.0659 0.069373 0)
(10.0683 0.0676006 0)
(10.0704 0.0657887 0)
(10.072 0.0640075 0)
(10.0734 0.0622862 0)
(10.0747 0.0606371 0)
(10.0759 0.0590745 0)
(10.0774 0.0575991 0)
(10.0797 0.0559436 0)
(10.0831 0.0524614 0)
(10.0023 0.0186695 0)
(10.0144 0.0407918 0)
(10.0302 0.0467938 0)
(10.0404 0.049166 0)
(10.0485 0.0505591 0)
(10.0561 0.0510766 0)
(10.0629 0.0512342 0)
(10.0691 0.0513286 0)
(10.0747 0.0514008 0)
(10.0799 0.051424 0)
(10.0848 0.0513724 0)
(10.0894 0.0512252 0)
(10.0939 0.0509646 0)
(10.0982 0.0505742 0)
(10.1025 0.0500294 0)
(10.107 0.0492484 0)
(10.1119 0.0479186 0)
(10.117 0.0450637 0)
(10.0025 0.0189114 0)
(10.0131 0.0369753 0)
(10.0269 0.0431816 0)
(10.0373 0.046485 0)
(10.0459 0.0491832 0)
(10.0539 0.0509698 0)
(10.0614 0.0520368 0)
(10.0682 0.0526578 0)
(10.0745 0.0529567 0)
(10.0804 0.0529906 0)
(10.0861 0.0528003 0)
(10.0916 0.0524138 0)
(10.0969 0.051845 0)
(10.1021 0.0510907 0)
(10.1073 0.0501196 0)
(10.1126 0.0488347 0)
(10.118 0.0469959 0)
(10.1234 0.0441478 0)
(10.0022 0.0166109 0)
(10.0111 0.0317012 0)
(10.0232 0.0386634 0)
(10.0334 0.0426195 0)
(10.0421 0.0455382 0)
(10.0502 0.0474101 0)
(10.0577 0.0484693 0)
(10.0648 0.0490239 0)
(10.0714 0.0492408 0)
(10.0776 0.0491993 0)
(10.0836 0.0489447 0)
(10.0894 0.0485016 0)
(10.095 0.0478757 0)
(10.1005 0.0470524 0)
(10.106 0.0459883 0)
(10.1114 0.044591 0)
(10.1167 0.0426953 0)
(10.1219 0.0400945 0)
(10.0019 0.0146567 0)
(10.0095 0.0280437 0)
(10.0202 0.0353073 0)
(10.0299 0.0395312 0)
(10.0384 0.0425031 0)
(10.0464 0.0444465 0)
(10.054 0.0455965 0)
(10.0611 0.0462286 0)
(10.0677 0.0465032 0)
(10.0741 0.0464993 0)
(10.0802 0.0462613 0)
(10.0861 0.0458127 0)
(10.0918 0.0451584 0)
(10.0974 0.0442839 0)
(10.1029 0.0431505 0)
(10.1082 0.0416875 0)
(10.1134 0.0397921 0)
(10.1184 0.0373895 0)
(10.0017 0.0130698 0)
(10.0082 0.0250792 0)
(10.0178 0.0322386 0)
(10.0268 0.036558 0)
(10.0351 0.0395576 0)
(10.043 0.0415514 0)
(10.0504 0.0427656 0)
(10.0575 0.0434463 0)
(10.0641 0.0437477 0)
(10.0705 0.0437516 0)
(10.0767 0.0435049 0)
(10.0826 0.0430331 0)
(10.0883 0.0423429 0)
(10.0939 0.041423 0)
(10.0993 0.0402428 0)
(10.1046 0.0387521 0)
(10.1096 0.0368892 0)
(10.1144 0.0346474 0)
(10.0015 0.0115124 0)
(10.0071 0.0221204 0)
(10.0154 0.0289615 0)
(10.0238 0.0332767 0)
(10.0316 0.036267 0)
(10.0392 0.0382816 0)
(10.0465 0.0395371 0)
(10.0534 0.0402511 0)
(10.06 0.04057 0)
(10.0664 0.040577 0)
(10.0725 0.0403212 0)
(10.0784 0.0398296 0)
(10.0841 0.0391119 0)
(10.0896 0.038162 0)
(10.0949 0.0369601 0)
(10.1 0.0354766 0)
(10.1048 0.0336834 0)
(10.1095 0.0316129 0)
(10.0013 0.00996074 0)
(10.006 0.0191656 0)
(10.0132 0.0255256 0)
(10.0208 0.0297177 0)
(10.0281 0.0326296 0)
(10.0353 0.0346114 0)
(10.0423 0.0358678 0)
(10.0491 0.0365877 0)
(10.0555 0.0369062 0)
(10.0618 0.0369055 0)
(10.0678 0.036635 0)
(10.0736 0.0361237 0)
(10.0792 0.0353848 0)
(10.0846 0.0344189 0)
(10.0898 0.0332182 0)
(10.0947 0.0317715 0)
(10.0993 0.0300755 0)
(10.1038 0.02818 0)
(10.0011 0.00842737 0)
(10.005 0.0162526 0)
(10.0111 0.0219785 0)
(10.0179 0.0259118 0)
(10.0248 0.028663 0)
(10.0315 0.0305496 0)
(10.0382 0.0317591 0)
(10.0446 0.0324516 0)
(10.0509 0.0327475 0)
(10.0569 0.0327249 0)
(10.0628 0.0324329 0)
(10.0684 0.0319022 0)
(10.0739 0.0311501 0)
(10.0791 0.0301843 0)
(10.0841 0.029008 0)
(10.0888 0.0276248 0)
(10.0932 0.026047 0)
(10.0975 0.0243289 0)
(10.0009 0.00692765 0)
(10.0042 0.0134008 0)
(10.0094 0.0183554 0)
(10.0154 0.0218877 0)
(10.0217 0.024384 0)
(10.0279 0.0261037 0)
(10.0342 0.0272096 0)
(10.0403 0.027834 0)
(10.0463 0.0280798 0)
(10.0521 0.0280182 0)
(10.0577 0.0276968 0)
(10.0632 0.0271471 0)
(10.0684 0.0263901 0)
(10.0734 0.02544 0)
(10.0781 0.0243086 0)
(10.0826 0.0230091 0)
(10.0869 0.0215619 0)
(10.0909 0.0200184 0)
(10.0008 0.00546789 0)
(10.0035 0.0106111 0)
(10.0079 0.0146814 0)
(10.0132 0.0176735 0)
(10.0189 0.0198098 0)
(10.0247 0.0212806 0)
(10.0305 0.0222177 0)
(10.0363 0.0227259 0)
(10.0419 0.0228892 0)
(10.0475 0.0227692 0)
(10.0528 0.0224096 0)
(10.058 0.0218417 0)
(10.063 0.0210886 0)
(10.0677 0.0201687 0)
(10.0723 0.0190991 0)
(10.0765 0.0178977 0)
(10.0806 0.0165875 0)
(10.0844 0.0152135 0)
(10.0006 0.00404364 0)
(10.003 0.00786837 0)
(10.0067 0.0109633 0)
(10.0114 0.0132858 0)
(10.0165 0.0149506 0)
(10.0218 0.0160822 0)
(10.0272 0.0167775 0)
(10.0326 0.0171145 0)
(10.038 0.0171571 0)
(10.0432 0.0169553 0)
(10.0483 0.0165462 0)
(10.0532 0.0159585 0)
(10.0579 0.0152152 0)
(10.0624 0.0143357 0)
(10.0667 0.0133387 0)
(10.0708 0.012243 0)
(10.0746 0.0110702 0)
(10.0783 0.00985796 0)
(10.0006 0.00263744 0)
(10.0025 0.00513712 0)
(10.0058 0.00717691 0)
(10.0099 0.00871148 0)
(10.0145 0.00979199 0)
(10.0194 0.0104892 0)
(10.0245 0.0108646 0)
(10.0295 0.0109699 0)
(10.0346 0.0108489 0)
(10.0395 0.0105373 0)
(10.0443 0.0100634 0)
(10.049 0.00945046 0)
(10.0535 0.00871814 0)
(10.0578 0.00788404 0)
(10.0618 0.0069649 0)
(10.0657 0.00597747 0)
(10.0693 0.00493963 0)
(10.0729 0.0038816 0)
(10.0005 0.00121695 0)
(10.0022 0.00235735 0)
(10.0052 0.00326142 0)
(10.0089 0.00389856 0)
(10.0131 0.0042857 0)
(10.0177 0.00445303 0)
(10.0224 0.00442944 0)
(10.0272 0.00424078 0)
(10.0319 0.00390998 0)
(10.0366 0.00345676 0)
(10.0412 0.00289791 0)
(10.0457 0.00224811 0)
(10.0499 0.00152068 0)
(10.054 0.00072812 0)
(10.0579 -0.000117416 0)
(10.0616 -0.00100382 0)
(10.0651 -0.00191825 0)
(10.0685 -0.00283764 0)
(10.0005 -0.000181812 0)
(10.0021 -0.000392301 0)
(10.0049 -0.000645207 0)
(10.0084 -0.000948045 0)
(10.0125 -0.0013022 0)
(10.0168 -0.0017094 0)
(10.0213 -0.00217041 0)
(10.026 -0.00268405 0)
(10.0305 -0.00324789 0)
(10.0351 -0.00385873 0)
(10.0395 -0.00451272 0)
(10.0438 -0.00520553 0)
(10.0479 -0.00593221 0)
(10.0518 -0.00668721 0)
(10.0556 -0.00746446 0)
(10.0592 -0.00825747 0)
(10.0626 -0.00905874 0)
(10.0658 -0.00985205 0)
(10.0005 -0.0014747 0)
(10.0021 -0.00294264 0)
(10.0049 -0.00427982 0)
(10.0085 -0.00546226 0)
(10.0125 -0.00650623 0)
(10.0169 -0.00744551 0)
(10.0214 -0.00830968 0)
(10.0259 -0.00912074 0)
(10.0305 -0.00989578 0)
(10.035 -0.010648 0)
(10.0393 -0.0113868 0)
(10.0435 -0.0121182 0)
(10.0476 -0.0128458 0)
(10.0515 -0.0135711 0)
(10.0552 -0.0142942 0)
(10.0587 -0.0150137 0)
(10.062 -0.0157271 0)
(10.0652 -0.0164237 0)
(10.0005 -0.00266199 0)
(10.0022 -0.00529896 0)
(10.0052 -0.00763444 0)
(10.0089 -0.00959898 0)
(10.0132 -0.0112366 0)
(10.0177 -0.0126242 0)
(10.0223 -0.013821 0)
(10.0269 -0.0148708 0)
(10.0315 -0.0158093 0)
(10.036 -0.0166651 0)
(10.0403 -0.0174594 0)
(10.0445 -0.0182077 0)
(10.0486 -0.0189209 0)
(10.0524 -0.0196068 0)
(10.0561 -0.0202708 0)
(10.0596 -0.0209162 0)
(10.0629 -0.021544 0)
(10.0661 -0.0221477 0)
(10.0005 -0.00378765 0)
(10.0024 -0.00757547 0)
(10.0057 -0.0108662 0)
(10.0098 -0.0135237 0)
(10.0143 -0.0156611 0)
(10.019 -0.017419 0)
(10.0238 -0.0188846 0)
(10.0286 -0.0201214 0)
(10.0333 -0.0211842 0)
(10.0378 -0.0221166 0)
(10.0423 -0.0229501 0)
(10.0465 -0.0237077 0)
(10.0506 -0.0244067 0)
(10.0544 -0.02506 0)
(10.0581 -0.0256773 0)
(10.0616 -0.0262662 0)
(10.0649 -0.026832 0)
(10.0681 -0.0273735 0)
(10.0005 -0.00485444 0)
(10.0026 -0.00984856 0)
(10.0063 -0.0140776 0)
(10.0109 -0.0173193 0)
(10.0158 -0.0198447 0)
(10.0208 -0.0218799 0)
(10.0258 -0.0235323 0)
(10.0308 -0.0248837 0)
(10.0356 -0.0260085 0)
(10.0403 -0.0269633 0)
(10.0448 -0.0277881 0)
(10.0491 -0.0285128 0)
(10.0531 -0.0291597 0)
(10.057 -0.0297464 0)
(10.0607 -0.0302867 0)
(10.0642 -0.0307919 0)
(10.0674 -0.0312698 0)
(10.0706 -0.0317218 0)
(10.0005 -0.00582917 0)
(10.0027 -0.0121951 0)
(10.0071 -0.0173684 0)
(10.0123 -0.0210961 0)
(10.0177 -0.023943 0)
(10.023 -0.0262106 0)
(10.0282 -0.0280135 0)
(10.0334 -0.0294609 0)
(10.0383 -0.030649 0)
(10.0431 -0.0316431 0)
(10.0476 -0.032486 0)
(10.052 -0.0332093 0)
(10.0561 -0.0338376 0)
(10.0599 -0.0343902 0)
(10.0636 -0.0348835 0)
(10.0671 -0.0353328 0)
(10.0703 -0.0357527 0)
(10.0735 -0.0361562 0)
(10.0002 -0.00663668 0)
(10.0027 -0.0146638 0)
(10.0079 -0.0205758 0)
(10.0139 -0.0245132 0)
(10.0196 -0.027535 0)
(10.0252 -0.0299029 0)
(10.0306 -0.0316983 0)
(10.0359 -0.0330751 0)
(10.0409 -0.0341668 0)
(10.0457 -0.0350542 0)
(10.0503 -0.0357881 0)
(10.0546 -0.0364045 0)
(10.0587 -0.0369296 0)
(10.0625 -0.0373831 0)
(10.0661 -0.0377807 0)
(10.0695 -0.0381368 0)
(10.0727 -0.038466 0)
(10.0757 -0.0387794 0)
(9.99982 -0.00723061 0)
(10.0024 -0.0181448 0)
(10.0087 -0.0247038 0)
(10.0154 -0.0286304 0)
(10.0214 -0.0319101 0)
(10.0271 -0.03462 0)
(10.0327 -0.0367146 0)
(10.0381 -0.0383344 0)
(10.0431 -0.0396049 0)
(10.0478 -0.0406017 0)
(10.0523 -0.0413796 0)
(10.0565 -0.0419834 0)
(10.0605 -0.0424487 0)
(10.0642 -0.0428031 0)
(10.0677 -0.0430689 0)
(10.071 -0.0432679 0)
(10.074 -0.0434286 0)
(10.0769 -0.0435954 0)
(9.99841 -0.0050212 0)
(10.0007 -0.0202929 0)
(10.0088 -0.0271107 0)
(10.016 -0.0298192 0)
(10.0219 -0.0317667 0)
(10.0276 -0.0332702 0)
(10.0332 -0.0344687 0)
(10.0385 -0.0355441 0)
(10.0434 -0.0365566 0)
(10.0481 -0.0375018 0)
(10.0524 -0.0383703 0)
(10.0565 -0.0391571 0)
(10.0603 -0.0398599 0)
(10.0638 -0.0404768 0)
(10.0671 -0.0410069 0)
(10.07 -0.041452 0)
(10.0727 -0.0418231 0)
(10.0751 -0.0421467 0)
(9.99479 -0.00318838 0)
(9.99583 -0.0256821 0)
(10.0072 -0.0394703 0)
(10.0157 -0.0487375 0)
(10.0217 -0.0546462 0)
(10.0272 -0.0576236 0)
(10.0322 -0.0587716 0)
(10.0367 -0.0589423 0)
(10.0408 -0.0585808 0)
(10.0446 -0.0579257 0)
(10.048 -0.0571224 0)
(10.0511 -0.0562602 0)
(10.054 -0.0553892 0)
(10.0566 -0.0545328 0)
(10.0589 -0.0536962 0)
(10.061 -0.0528708 0)
(10.0628 -0.0520508 0)
(10.0643 -0.0512447 0)
(9.98519 0.00576603 0)
(9.98187 0.0248649 0)
(9.9941 0.0365079 0)
(10.0036 0.0321347 0)
(10.0108 0.0223004 0)
(10.0167 0.0122781 0)
(10.0211 0.00311918 0)
(10.024 -0.00498168 0)
(10.0258 -0.0119551 0)
(10.0268 -0.0178429 0)
(10.0271 -0.0227581 0)
(10.0268 -0.0268322 0)
(10.026 -0.0301888 0)
(10.0247 -0.0329339 0)
(10.0231 -0.0351499 0)
(10.0212 -0.0368871 0)
(10.0189 -0.038161 0)
(10.0159 -0.0388668 0)
(10.0137 -0.317342 0)
(10.0102 -0.326327 0)
(9.99894 -0.271525 0)
(9.98282 -0.224893 0)
(9.96833 -0.188171 0)
(9.95436 -0.158846 0)
(9.93924 -0.135776 0)
(9.92271 -0.117766 0)
(9.90496 -0.103646 0)
(9.88622 -0.0924834 0)
(9.86669 -0.0835825 0)
(9.84655 -0.0764228 0)
(9.826 -0.0706097 0)
(9.80522 -0.0658403 0)
(9.78436 -0.0618741 0)
(9.76359 -0.0584992 0)
(9.74309 -0.055487 0)
(9.72222 -0.0522215 0)
(9.95412 0.913092 0)
(9.95406 0.561001 0)
(9.86626 0.375415 0)
(9.75289 0.258525 0)
(9.63883 0.180488 0)
(9.52772 0.126933 0)
(9.41984 0.0891659 0)
(9.31598 0.0619587 0)
(9.21678 0.0420706 0)
(9.12248 0.0273808 0)
(9.0331 0.0164454 0)
(8.94854 0.00825819 0)
(8.86867 0.00210577 0)
(8.79329 -0.00252433 0)
(8.72224 -0.00600208 0)
(8.65531 -0.00858779 0)
(8.59258 -0.0104265 0)
(8.53212 -0.0113626 0)
(0.0075716 -0.0191192 0)
(0.0194414 -0.0199811 0)
(0.0274893 -0.0130218 0)
(0.0294588 -0.00367749 0)
(0.0242258 0.00601225 0)
(0.0135656 0.0145291 0)
(-0.00223073 0.0211609 -3.84272e-19)
(-0.0212561 0.0250604 3.40143e-19)
(-0.0422472 0.0271317 0)
(-0.0649238 0.0283992 2.56109e-19)
(-0.0888748 0.0293184 0)
(-0.113878 0.0300506 0)
(-0.139781 0.0306443 0)
(-0.166456 0.0311131 -1.6543e-19)
(-0.193788 0.0314636 0)
(-0.221676 0.0317041 0)
(-0.250027 0.0318457 1.29235e-19)
(-0.278756 0.0319008 0)
(-0.307793 0.0318824 0)
(-0.337074 0.0318033 0)
(-0.366549 0.0316751 -9.97625e-20)
(-0.396174 0.0315085 0)
(-0.425914 0.0313127 -8.9602e-20)
(-0.455743 0.0310954 0)
(-0.48564 0.0308631 0)
(-0.515591 0.0306212 -7.78494e-20)
(-0.545586 0.0303737 0)
(-0.575618 0.0301237 7.16722e-20)
(-0.605685 0.0298736 0)
(-0.635786 0.0296246 -6.64632e-20)
(-0.665923 0.0293777 0)
(-0.696098 0.0291331 0)
(-0.726315 0.028891 0)
(-0.756578 0.0286512 0)
(-0.786893 0.0284137 0)
(-0.817261 0.028179 5.48003e-20)
(-0.84769 0.0279481 0)
(-0.878192 0.0277251 -1.0367e-19)
(-0.908783 0.0275205 0)
(-0.939439 0.0273495 9.83818e-20)
(-0.970216 0.0272193 0)
(-1.00114 0.0271169 0)
(-1.03223 0.0270301 -9.14078e-20)
(-1.0635 0.0269526 0)
(-1.09494 0.0268802 -8.73034e-20)
(-1.12657 0.0268099 8.53912e-20)
(-1.15838 0.0267394 0)
(-1.19037 0.0266667 8.1816e-20)
(-1.22253 0.0265901 8.01423e-20)
(-1.25487 0.0265081 0)
(-1.28737 0.0264195 0)
(-1.32003 0.0263229 0)
(-1.35282 0.0262172 0)
(-1.38575 0.0261014 0)
(-1.4188 0.0259745 -7.14284e-20)
(-1.45195 0.0258356 0)
(-1.48518 0.0256839 6.89474e-20)
(-1.51848 0.0255187 0)
(-1.55182 0.0253393 0)
(-1.58519 0.0251451 -6.55463e-20)
(-1.61856 0.0249353 0)
(-1.6519 0.0247093 6.34656e-20)
(-1.6852 0.0244663 0)
(-1.71843 0.024206 0)
(-1.75156 0.0239276 0)
(-1.78456 0.0236308 -5.96799e-20)
(-1.81739 0.0233152 0)
(-1.85004 0.0229804 0)
(-1.88246 0.0226261 -5.7113e-20)
(-1.91462 0.0222517 0)
(-1.94649 0.0218567 -5.55072e-20)
(-1.97803 0.0214407 0)
(-2.0092 0.0210031 0)
(-2.03996 0.0205436 0)
(-2.07027 0.0200614 5.24954e-20)
(-2.10009 0.0195563 0)
(-2.12937 0.0190277 0)
(-2.15807 0.0184752 5.03683e-20)
(-2.18614 0.0178986 4.96774e-20)
(-2.21353 0.0172977 0)
(-2.2402 0.0166721 4.83151e-20)
(-2.26608 0.0160215 0)
(-2.29114 0.0153459 9.39418e-20)
(-2.31531 0.0146452 0)
(-2.33853 0.0139197 9.12702e-20)
(-2.36077 0.0131699 0)
(-2.38195 0.0123964 -8.85963e-20)
(-2.40202 0.0115999 0)
(-2.42094 0.0107814 0)
(-2.43863 0.009942 0)
(-2.45506 0.00908326 8.31675e-20)
(-2.47017 0.00820712 0)
(-2.48391 0.00731568 -8.03765e-20)
(-2.49624 0.0064112 0)
(-2.50712 0.00549598 7.75111e-20)
(-2.5165 0.00457253 7.60453e-20)
(-2.52436 0.00364348 7.45547e-20)
(-2.53067 0.00271128 0)
(-2.5354 0.00177752 0)
(-2.53852 0.000845096 0)
(-2.54002 -7.24673e-05 0)
(-2.53992 -0.000967872 0)
(-2.53823 -0.00184461 0)
(-2.53496 -0.00270255 0)
(-2.53013 -0.00354142 0)
(-2.52376 -0.00436088 -5.95135e-20)
(-2.51585 -0.00516039 -5.76403e-20)
(-2.50644 -0.00593923 0)
(-2.49554 -0.00669668 0)
(-2.48318 -0.0074322 0)
(-2.46937 -0.00814544 -4.96892e-20)
(-2.45416 -0.00883602 0)
(-2.43755 -0.00950351 0)
(-2.41959 -0.0101477 0)
(-2.4003 -0.0107684 0)
(-2.37971 -0.011366 3.86058e-20)
(-2.35785 -0.0119404 0)
(-2.33476 -0.0124914 0)
(-2.31047 -0.0130195 -3.12689e-20)
(-2.285 -0.0135255 2.8698e-20)
(-2.2584 -0.0140104 0)
(-2.23069 -0.014475 2.33559e-20)
(-2.20191 -0.0149202 0)
(-2.17207 -0.0153469 -1.77307e-20)
(-2.14121 -0.0157567 0)
(-2.10935 -0.016151 0)
(-2.07652 -0.0165306 0)
(-2.04272 -0.0168969 0)
(-2.008 -0.0172517 0)
(-1.97235 -0.0175973 -2.16949e-21)
(-1.93579 -0.0179349 -9.08653e-21)
(-1.89834 -0.0182663 0)
(-1.86 -0.0185936 0)
(-1.82076 -0.0189195 0)
(-1.78064 -0.0192458 3.89697e-20)
(-1.73963 -0.0195735 0)
(-1.69772 -0.0199043 0)
(-1.65491 -0.0202402 0)
(-1.61117 -0.0205831 7.30818e-20)
(-1.56651 -0.0209351 -8.24059e-20)
(-1.52089 -0.0212992 0)
(-1.4743 -0.0216765 0)
(-1.42671 -0.0220675 -1.12674e-19)
(-1.3781 -0.0224734 -1.23629e-19)
(-1.32845 -0.0228964 0)
(-1.27771 -0.0233408 0)
(-1.22586 -0.0238079 1.59608e-19)
(-1.17286 -0.0242954 -1.72793e-19)
(-1.1187 -0.0248048 0)
(-1.06332 -0.025346 0)
(-1.00669 -0.0259162 -2.16731e-19)
(-0.948783 -0.0265055 0)
(-0.889563 -0.0271317 0)
(-0.828982 -0.0277909 -2.68893e-19)
(-0.767037 -0.0284673 0)
(-0.703679 -0.0292021 -3.09648e-19)
(-0.638881 -0.0299687 0)
(-0.572606 -0.0307682 0)
(-0.504842 -0.031619 0)
(-0.43558 -0.0325015 4.11447e-19)
(-0.364709 -0.0334856 0)
(-0.292576 -0.0345079 0)
(-0.218356 -0.03564 0)
(-0.142917 -0.0369493 0)
(-0.0667816 -0.0382382 0)
(0.0138271 -0.0384385 0)
(0.0927822 -0.0375589 6.07217e-19)
(0.172571 -0.036773 5.85741e-19)
(0.253013 -0.0360949 0)
(0.334093 -0.0354676 0)
(0.415773 -0.0348568 0)
(0.49793 -0.034225 -5.17374e-19)
(0.580356 -0.0335359 0)
(0.662728 -0.0327365 9.8203e-19)
(0.744576 -0.0317469 -9.59096e-19)
(0.824952 -0.0303788 -9.38697e-19)
(0.902775 -0.0283672 9.21465e-19)
(0.973281 -0.0245683 -9.09215e-19)
(1.03771 -0.0179684 9.06154e-19)
(1.03521 0.0035089 0)
(0.00239036 -0.0373659 0)
(0.00297422 -0.0261259 0)
(-0.00347746 -0.00561652 3.68294e-19)
(-0.0139273 0.0140069 0)
(-0.0271132 0.0306938 -2.41349e-19)
(-0.0426586 0.0440474 -2.19445e-19)
(-0.0602147 0.0541265 -1.02139e-19)
(-0.0795891 0.0613282 -9.61249e-20)
(-0.100627 0.066424 0)
(-0.123116 0.0701345 -8.54743e-20)
(-0.146791 0.0729329 0)
(-0.171415 0.0751001 0)
(-0.196799 0.0767915 1.4403e-19)
(-0.222796 0.0780954 6.82849e-20)
(-0.249289 0.0790684 -1.29485e-19)
(-0.276183 0.0797541 -1.23112e-19)
(-0.3034 0.0801901 -5.86993e-20)
(-0.330874 0.0804117 0)
(-0.358551 0.0804518 0)
(-0.386387 0.080341 0)
(-0.414343 0.0801077 -4.91293e-20)
(-0.442392 0.0797772 0)
(-0.470509 0.0793719 1.36613e-19)
(-0.49868 0.0789114 0)
(-0.526893 0.0784125 0)
(-0.55514 0.0778892 4.10282e-20)
(-0.58342 0.0773531 0)
(-0.611732 0.0768136 -3.84973e-20)
(-0.640079 0.0762781 -7.45886e-20)
(-0.668468 0.0757522 3.62842e-20)
(-0.696905 0.0752402 0)
(-0.725399 0.074745 0)
(-0.753961 0.0742686 0)
(-0.782602 0.0738121 -6.50824e-20)
(-0.811333 0.0733762 -6.34932e-20)
(-0.840166 0.0729613 -3.10565e-20)
(-0.869116 0.0725675 0)
(-0.898195 0.072196 5.93338e-20)
(-0.927419 0.0718523 0)
(-0.956794 0.0715488 -5.68183e-20)
(-0.98632 0.0712896 0)
(-1.016 0.0710644 0)
(-1.04582 0.0708617 5.34389e-20)
(-1.0758 0.0706724 0)
(-1.10593 0.0704894 1.53952e-19)
(-1.13621 0.0703066 -5.04424e-20)
(-1.16664 0.0701191 0)
(-1.19722 0.0699224 -4.86227e-20)
(-1.22794 0.0697127 -4.776e-20)
(-1.2588 0.0694865 0)
(-1.28978 0.0692406 0)
(-1.32088 0.0689721 0)
(-1.35209 0.0686781 0)
(-1.38339 0.0683562 0)
(-1.41477 0.068004 4.31433e-20)
(-1.44622 0.0676193 8.4655e-20)
(-1.47771 0.0672001 -4.17856e-20)
(-1.50924 0.0667446 0)
(-1.54077 0.066251 8.07565e-20)
(-1.5723 0.0657177 -3.96396e-20)
(-1.60379 0.0651432 0)
(-1.63523 0.064526 -3.87041e-20)
(-1.66659 0.0638646 0)
(-1.69785 0.0631578 0)
(-1.72898 0.0624044 -7.38282e-20)
(-1.75995 0.0616034 3.64999e-20)
(-1.79074 0.0607538 -7.17252e-20)
(-1.82131 0.0598547 7.07052e-20)
(-1.85163 0.0589053 3.49642e-20)
(-1.88167 0.0579043 0)
(-1.9114 0.0568509 3.39846e-20)
(-1.94078 0.0557439 0)
(-1.96977 0.0545824 0)
(-1.99835 0.0533651 0)
(-2.02646 0.0520913 3.19082e-20)
(-2.05407 0.0507597 0)
(-2.08114 0.0493694 6.22035e-20)
(-2.10762 0.0479197 -9.20526e-20)
(-2.13347 0.0464098 -3.02958e-20)
(-2.15864 0.0448391 0)
(-2.18309 0.0432073 -2.94034e-20)
(-2.20676 0.0415138 0)
(-2.2296 0.0397584 -5.70247e-20)
(-2.25157 0.0379414 0)
(-2.2726 0.0360635 -5.52353e-20)
(-2.29265 0.034126 1.08432e-19)
(-2.31166 0.0321304 5.34292e-20)
(-2.32958 0.0300791 0)
(-2.34636 0.0279745 0)
(-2.36193 0.0258201 0)
(-2.37626 0.0236201 -4.97317e-20)
(-2.38928 0.0213796 0)
(-2.40096 0.0191044 4.78253e-20)
(-2.41124 0.0168007 0)
(-2.42009 0.0144752 -1.37566e-19)
(-2.42747 0.0121349 -4.48768e-20)
(-2.43335 0.00978705 -4.38681e-20)
(-2.43769 0.00743787 0)
(-2.44047 0.00509139 0)
(-2.44166 0.00275636 0)
(-2.44128 0.000460515 0)
(-2.43934 -0.0017771 0)
(-2.43584 -0.00395872 -7.4961e-20)
(-2.4308 -0.0060843 -7.26939e-20)
(-2.42423 -0.00815322 0)
(-2.41615 -0.0101646 3.39255e-20)
(-2.40657 -0.0121173 3.27246e-20)
(-2.39551 -0.01401 0)
(-2.383 -0.0158414 6.07861e-20)
(-2.36904 -0.0176106 0)
(-2.35368 -0.0193169 -2.80215e-20)
(-2.33692 -0.0209598 0)
(-2.31879 -0.0225386 0)
(-2.29932 -0.0240532 4.7887e-20)
(-2.27855 -0.0255035 0)
(-2.25648 -0.0268901 -2.10286e-20)
(-2.23316 -0.0282131 0)
(-2.20861 -0.0294731 0)
(-2.18287 -0.0306711 -1.71991e-20)
(-2.15595 -0.0318091 -1.53027e-20)
(-2.12789 -0.0328893 0)
(-2.09871 -0.0339139 1.27922e-20)
(-2.06845 -0.0348852 0)
(-2.03712 -0.0358062 -9.74458e-21)
(-2.00475 -0.0366803 -1.58535e-20)
(-1.97136 -0.0375105 0)
(-1.93697 -0.0382996 0)
(-1.90159 -0.0390503 0)
(-1.86524 -0.0397663 0)
(-1.82794 -0.0404516 1.08713e-21)
(-1.78969 -0.0411095 1.23682e-20)
(-1.75049 -0.0417438 0)
(-1.71036 -0.0423594 0)
(-1.66929 -0.0429609 0)
(-1.62728 -0.043552 -1.88097e-20)
(-1.58432 -0.0441346 0)
(-1.54041 -0.0447111 0)
(-1.49553 -0.0452848 5.89489e-20)
(-1.44967 -0.0458594 3.26773e-20)
(-1.40281 -0.046439 3.8066e-20)
(-1.35494 -0.0470284 0)
(-1.30602 -0.0476283 0)
(-1.25604 -0.0482371 5.04777e-20)
(-1.20496 -0.0488569 -5.32277e-20)
(-1.15277 -0.0494917 0)
(-1.09943 -0.0501483 0)
(-1.04491 -0.0508253 -6.81761e-20)
(-0.989163 -0.0515157 2.16794e-19)
(-0.932181 -0.0522206 0)
(-0.873919 -0.0529557 0)
(-0.814332 -0.0537159 8.73435e-20)
(-0.753401 -0.05448 0)
(-0.691094 -0.0552739 1.93188e-19)
(-0.627359 -0.056093 -1.00869e-19)
(-0.562195 -0.0569002 0)
(-0.495547 -0.057755 1.13596e-19)
(-0.427407 -0.0586245 2.36307e-19)
(-0.357718 -0.0594986 0)
(-0.286488 -0.0604089 0)
(-0.213716 -0.0613093 -1.36579e-19)
(-0.139183 -0.0622775 0)
(-0.0634844 -0.0632788 2.9529e-19)
(0.014792 -0.0641813 0)
(0.093715 -0.0650314 0)
(0.173463 -0.066013 0)
(0.254785 -0.0663258 0)
(0.336749 -0.0659333 -1.58112e-19)
(0.419705 -0.0656316 -1.59333e-19)
(0.503395 -0.065357 0)
(0.587725 -0.0650675 0)
(0.67258 -0.0647135 0)
(0.757797 -0.0642399 1.63275e-19)
(0.843147 -0.06358 0)
(0.928291 -0.0626339 -3.29609e-19)
(1.01276 -0.0612372 3.31069e-19)
(1.09571 -0.0590517 3.32613e-19)
(1.17624 -0.0554866 3.31271e-19)
(1.25088 -0.0488901 3.36971e-19)
(1.32187 -0.0363146 3.38725e-19)
(1.35969 -0.00867421 0)
(-0.0048546 -0.0306975 0)
(-0.0145816 -0.00433193 0)
(-0.0282108 0.0222424 -2.25624e-19)
(-0.0433918 0.0445324 -1.68547e-19)
(-0.0596856 0.0633242 1.43224e-19)
(-0.0768146 0.0789122 1.29208e-19)
(-0.0948769 0.0914785 4.49348e-23)
(-0.114005 0.101316 0)
(-0.134244 0.10888 0)
(-0.155524 0.114666 0)
(-0.177708 0.119095 0)
(-0.20064 0.122482 0)
(-0.22418 0.125052 -2.65542e-19)
(-0.248207 0.126961 0)
(-0.272625 0.128323 8.09459e-20)
(-0.297357 0.129227 7.7548e-20)
(-0.322342 0.129745 0)
(-0.347529 0.129939 0)
(-0.372881 0.129864 0)
(-0.398365 0.129569 0)
(-0.423957 0.129098 6.39015e-20)
(-0.449639 0.128491 0)
(-0.475396 0.127779 -5.9699e-20)
(-0.50122 0.126993 0)
(-0.527104 0.126159 0)
(-0.553046 0.125295 0)
(-0.579046 0.124421 -1.05575e-19)
(-0.605108 0.12355 0)
(-0.631234 0.122694 5.00091e-20)
(-0.657432 0.12186 -9.73249e-20)
(-0.683709 0.121056 0)
(-0.710072 0.120285 0)
(-0.736532 0.119552 0)
(-0.763097 0.118857 4.42077e-20)
(-0.789778 0.118203 4.32199e-20)
(-0.816584 0.117588 0)
(-0.843524 0.117014 0)
(-0.870608 0.116479 -8.09182e-20)
(-0.897843 0.115985 -7.92736e-20)
(-0.925231 0.11553 7.76961e-20)
(-0.95277 0.115113 0)
(-0.980459 0.114725 0)
(-1.0083 0.114358 0)
(-1.03628 0.114003 0)
(-1.06441 0.113652 -7.07918e-20)
(-1.09268 0.113298 -6.93828e-20)
(-1.1211 0.112933 6.81575e-20)
(-1.14965 0.112551 0)
(-1.17832 0.112148 0)
(-1.20713 0.111716 0)
(-1.23604 0.111252 0)
(-1.26506 0.110751 -6.2572e-20)
(-1.29417 0.110209 0)
(-1.32336 0.109621 0)
(-1.35263 0.108985 -5.95904e-20)
(-1.38194 0.108296 -5.87967e-20)
(-1.41129 0.107552 0)
(-1.44066 0.10675 1.13676e-19)
(-1.47003 0.105887 -5.61119e-20)
(-1.49938 0.10496 5.52594e-20)
(-1.5287 0.103967 0)
(-1.55795 0.102906 0)
(-1.58712 0.101775 0)
(-1.61618 0.100572 0)
(-1.64511 0.0992943 5.12675e-20)
(-1.67388 0.0979415 1.00757e-19)
(-1.70247 0.0965118 4.9778e-20)
(-1.73084 0.0950038 -4.90524e-20)
(-1.75897 0.0934158 0)
(-1.78682 0.0917464 9.50099e-20)
(-1.81437 0.0899939 9.36269e-20)
(-1.84158 0.0881567 9.22618e-20)
(-1.86842 0.0862333 -9.09128e-20)
(-1.89486 0.0842221 0)
(-1.92085 0.0821215 -1.32499e-19)
(-1.94635 0.07993 0)
(-1.97134 0.077646 4.27135e-20)
(-1.99576 0.0752682 4.22784e-20)
(-2.01958 0.0727954 0)
(-2.04275 0.0702266 0)
(-2.06522 0.0675608 8.0493e-20)
(-2.08695 0.0647974 0)
(-2.10789 0.0619361 7.79298e-20)
(-2.12799 0.0589773 0)
(-2.1472 0.0559221 -7.53577e-20)
(-2.16547 0.0527723 -1.48259e-19)
(-2.18274 0.0495304 0)
(-2.19896 0.0461997 0)
(-2.21409 0.0427846 0)
(-2.22806 0.0392906 -6.88129e-20)
(-2.24082 0.0357247 0)
(-2.25234 0.0320948 -6.6123e-20)
(-2.26255 0.0284101 0)
(-2.27141 0.0246807 0)
(-2.27889 0.0209173 1.23984e-19)
(-2.28494 0.0171316 0)
(-2.28954 0.0133351 5.91539e-20)
(-2.29265 0.00953823 0)
(-2.29424 0.00574943 5.62548e-20)
(-2.2943 0.00199921 0)
(-2.29285 -0.00167384 0)
(-2.2899 -0.00525751 0)
(-2.28544 -0.00875063 1.50107e-19)
(-2.27949 -0.0121522 4.83608e-20)
(-2.27207 -0.0154607 0)
(-2.26318 -0.0186747 0)
(-2.25284 -0.0217923 0)
(-2.24107 -0.0248114 0)
(-2.22788 -0.0277306 -4.00196e-20)
(-2.21331 -0.0305484 7.69572e-20)
(-2.19736 -0.033264 3.65417e-20)
(-2.18006 -0.0358766 -6.99672e-20)
(-2.16144 -0.0383855 -6.64122e-20)
(-2.14151 -0.0407909 -3.11764e-20)
(-2.1203 -0.0430929 0)
(-2.09785 -0.0452922 -5.55122e-20)
(-2.07416 -0.0473893 0)
(-2.04928 -0.0493856 4.80531e-20)
(-2.02322 -0.0512832 2.18508e-20)
(-1.99601 -0.0530849 0)
(-1.96768 -0.0547943 -3.65816e-20)
(-1.93826 -0.0564149 -1.60317e-20)
(-1.90776 -0.0579511 0)
(-1.87621 -0.0594077 -1.27137e-20)
(-1.84363 -0.06079 3.08077e-20)
(-1.81004 -0.062103 0)
(-1.77545 -0.0633516 0)
(-1.73987 -0.0645404 0)
(-1.70333 -0.0656748 0)
(-1.66582 -0.0667602 1.22945e-22)
(-1.62736 -0.0678021 -4.89203e-21)
(-1.58795 -0.0688073 0)
(-1.5476 -0.0697829 0)
(-1.50629 -0.0707359 0)
(-1.46403 -0.071672 0)
(-1.42081 -0.0725945 0)
(-1.37661 -0.0735064 0)
(-1.33142 -0.074412 -3.59859e-20)
(-1.28524 -0.0753168 -8.92683e-22)
(-1.23804 -0.0762274 0)
(-1.1898 -0.0771514 0)
(-1.14049 -0.078089 -5.38895e-20)
(-1.0901 -0.0790367 0)
(-1.03858 -0.079997 6.45774e-20)
(-0.985931 -0.0809754 6.85351e-20)
(-0.932107 -0.081983 0)
(-0.877071 -0.0830164 0)
(-0.82079 -0.0840629 -8.47239e-20)
(-0.763245 -0.085123 -1.77644e-19)
(-0.704398 -0.0862194 0)
(-0.6442 -0.0873445 0)
(-0.582633 -0.0884659 0)
(-0.519666 -0.0896178 -1.11081e-19)
(-0.455249 -0.090797 1.16489e-19)
(-0.389381 -0.0919494 0)
(-0.321989 -0.0931449 2.52381e-19)
(-0.25311 -0.0943532 1.30426e-19)
(-0.182635 -0.0955462 -2.74376e-19)
(-0.110605 -0.0967784 0)
(-0.0370593 -0.0979851 0)
(0.0384561 -0.0991553 -3.04411e-19)
(0.114781 -0.10031 -1.56328e-19)
(0.192682 -0.101256 0)
(0.271678 -0.102009 0)
(0.351647 -0.102787 0)
(0.432739 -0.103164 0)
(0.514861 -0.103121 -3.35064e-19)
(0.598028 -0.103045 0)
(0.681976 -0.10292 0)
(0.76655 -0.102701 0)
(0.851594 -0.102327 0)
(0.936921 -0.101726 0)
(1.02229 -0.100803 0)
(1.10736 -0.0994108 -3.64614e-19)
(1.19169 -0.0973107 0)
(1.27456 -0.0940471 0)
(1.3553 -0.0888419 -7.54011e-19)
(1.4314 -0.0798655 3.80517e-19)
(1.50623 -0.0643115 -3.88595e-19)
(1.56257 -0.0352083 3.94009e-19)
(-0.010628 -0.00474915 0)
(-0.0253318 0.030156 5.96705e-19)
(-0.0418508 0.057636 0)
(-0.0596012 0.0803809 1.26989e-19)
(-0.0776995 0.09975 0)
(-0.0959069 0.116162 0)
(-0.114393 0.129814 -8.81301e-20)
(-0.13334 0.140922 0)
(-0.152855 0.149783 0)
(-0.172968 0.156746 0)
(-0.193646 0.162146 0)
(-0.214829 0.166278 0)
(-0.236442 0.169381 2.61996e-19)
(-0.258414 0.171641 1.2566e-19)
(-0.280683 0.173209 -1.20681e-19)
(-0.303197 0.174201 0)
(-0.325914 0.174718 0)
(-0.348801 0.17484 0)
(-0.371831 0.174639 0)
(-0.394984 0.174178 0)
(-0.418245 0.17351 9.71579e-20)
(-0.441602 0.172684 9.41039e-20)
(-0.465048 0.17174 -9.12466e-20)
(-0.488578 0.170714 8.85695e-20)
(-0.512189 0.169635 0)
(-0.535881 0.16853 0)
(-0.559657 0.167419 8.1499e-20)
(-0.583518 0.166319 0)
(-0.60747 0.165243 0)
(-0.631518 0.164202 7.55521e-20)
(-0.655668 0.163203 7.37356e-20)
(-0.679928 0.162251 7.2045e-20)
(-0.704303 0.16135 0)
(-0.728802 0.160501 0)
(-0.753431 0.159704 -6.74379e-20)
(-0.778197 0.158958 0)
(-0.803106 0.158261 0)
(-0.828164 0.157612 6.34651e-20)
(-0.853372 0.157006 -6.21094e-20)
(-0.878734 0.156439 6.0916e-20)
(-0.904247 0.155907 0)
(-0.929911 0.1554 0)
(-0.955722 0.15491 1.15301e-19)
(-0.981679 0.154429 0)
(-1.00778 0.153946 1.11225e-19)
(-1.03402 0.153454 1.63994e-19)
(-1.06039 0.152944 -1.61169e-19)
(-1.0869 0.152409 1.0557e-19)
(-1.11353 0.151841 0)
(-1.14027 0.151234 0)
(-1.16712 0.150581 1.00391e-19)
(-1.19407 0.149876 4.94532e-20)
(-1.2211 0.149115 0)
(-1.24821 0.148291 0)
(-1.27537 0.1474 4.713e-20)
(-1.30259 0.146437 9.26404e-20)
(-1.32983 0.145399 0)
(-1.35709 0.144281 -8.99479e-20)
(-1.38434 0.143079 8.84309e-20)
(-1.41157 0.141791 -8.70909e-20)
(-1.43876 0.140414 0)
(-1.46589 0.138943 0)
(-1.49293 0.137378 0)
(-1.51986 0.135714 0)
(-1.54666 0.13395 0)
(-1.5733 0.132084 -7.9741e-20)
(-1.59977 0.130114 0)