# vtk DataFile Version 2.0
track0
ASCII
DATASET POLYDATA
POINTS 11945 float
-0.0205 0.001 1e-05
-0.0202034 0.0010001 1e-05
-0.0199069 0.00100035 1e-05
-0.0196103 0.00100072 1e-05
-0.0193137 0.0010012 1e-05
-0.0190172 0.00100179 1e-05
-0.0187132 0.00100302 1e-05
-0.0184093 0.00100345 1e-05
-0.0181054 0.00100385 1e-05
-0.0178015 0.00100423 1e-05
-0.0174976 0.00100458 1e-05
-0.0172058 0.00100549 1e-05
-0.016914 0.00100572 1e-05
-0.0166222 0.00100597 1e-05
-0.0163305 0.00100623 1e-05
-0.0160387 0.0010065 1e-05
-0.0157586 0.0010073 1e-05
-0.0154784 0.00100763 1e-05
-0.0151983 0.001008 1e-05
-0.0149182 0.00100842 1e-05
-0.0146381 0.00100889 1e-05
-0.0143692 0.00100977 1e-05
-0.0141002 0.00101032 1e-05
-0.0138313 0.00101092 1e-05
-0.0135624 0.00101156 1e-05
-0.0132934 0.00101224 1e-05
-0.0130353 0.00101322 1e-05
-0.0127771 0.00101397 1e-05
-0.0125189 0.00101475 1e-05
-0.0122607 0.00101557 1e-05
-0.0120025 0.00101642 1e-05
-0.0117547 0.00101745 1e-05
-0.0115068 0.00101834 1e-05
-0.0112589 0.00101925 1e-05
-0.0110111 0.00102019 1e-05
-0.0107632 0.00102116 1e-05
-0.0105252 0.00102222 1e-05
-0.0102873 0.0010232 1e-05
-0.0100493 0.0010242 1e-05
-0.00981133 0.00102522 1e-05
-0.00957337 0.00102626 1e-05
-0.00934491 0.00102733 1e-05
-0.00911645 0.00102837 1e-05
-0.00888799 0.00102942 1e-05
-0.00865954 0.00103048 1e-05
-0.00843108 0.00103155 1e-05
-0.00821175 0.00103262 1e-05
-0.00799242 0.00103368 1e-05
-0.00777309 0.00103475 1e-05
-0.00755376 0.00103582 1e-05
-0.00733443 0.00103691 1e-05
-0.00720153 0.00103758 1e-05
-0.00706863 0.00103824 1e-05
-0.00693573 0.00103891 1e-05
-0.00680282 0.00103959 1e-05
-0.0066711 0.00104025 1e-05
-0.0065932 0.00104065 1e-05
-0.0065153 0.00104105 1e-05
-0.0064374 0.00104145 1e-05
-0.0063595 0.00104184 1e-05
-0.0062816 0.00104224 1e-05
-0.00607944 0.00104328 1e-05
-0.00587729 0.00104433 1e-05
-0.00567514 0.00104537 1e-05
-0.00547298 0.00104642 1e-05
-0.00527083 0.00104748 1e-05
-0.00507675 0.00104849 1e-05
-0.00488267 0.00104951 1e-05
-0.0046886 0.00105053 1e-05
-0.00449452 0.00105155 1e-05
-0.00430044 0.00105258 1e-05
-0.00411412 0.00105355 1e-05
-0.0039278 0.00105454 1e-05
-0.00374147 0.00105552 1e-05
-0.00355515 0.00105651 1e-05
-0.00336883 0.0010575 1e-05
-0.00318995 0.00105844 1e-05
-0.00301107 0.00105939 1e-05
-0.00283219 0.00106034 1e-05
-0.00265331 0.00106129 1e-05
-0.00247443 0.00106223 1e-05
-0.0023027 0.00106314 1e-05
-0.00213097 0.00106405 1e-05
-0.00195924 0.00106496 1e-05
-0.0017875 0.00106587 1e-05
-0.00161577 0.00106677 1e-05
-0.0014509 0.00106764 1e-05
-0.00128603 0.0010685 1e-05
-0.00112116 0.00106937 1e-05
-0.000956289 0.00107022 1e-05
-0.000791418 0.00107108 1e-05
-0.000633135 0.00107188 1e-05
-0.000474851 0.00107267 1e-05
-0.000316567 0.00107345 1e-05
-0.000158283 0.00107422 1e-05
0 0.00107496 1e-05
0.000105677 0.00107544 1e-05
0.000211355 0.00107592 1e-05
0.000317032 0.00107638 1e-05
0.00042271 0.00107683 1e-05
0.000528387 0.00107727 1e-05
0.000634886 0.00107769 1e-05
0.000741385 0.00107811 1e-05
0.000847885 0.00107851 1e-05
0.000954384 0.00107891 1e-05
0.00106088 0.00107929 1e-05
0.00116821 0.00107966 1e-05
0.00127554 0.00108002 1e-05
0.00138286 0.00108038 1e-05
0.00149019 0.00108073 1e-05
0.00159752 0.00108107 1e-05
0.00170568 0.00108139 1e-05
0.00181384 0.00108171 1e-05
0.001922 0.00108203 1e-05
0.00203016 0.00108234 1e-05
0.00213833 0.00108265 1e-05
0.00224733 0.00108293 1e-05
0.00235633 0.00108322 1e-05
0.00246533 0.00108351 1e-05
0.00257434 0.0010838 1e-05
0.00268334 0.00108408 1e-05
0.00279319 0.00108434 1e-05
0.00290304 0.00108462 1e-05
0.00301289 0.00108489 1e-05
0.00312274 0.00108516 1e-05
0.00323259 0.00108543 1e-05
0.00334329 0.00108569 1e-05
0.003454 0.00108596 1e-05
0.0035647 0.00108623 1e-05
0.0036754 0.00108649 1e-05
0.00378611 0.00108676 1e-05
0.00389767 0.00108702 1e-05
0.00400924 0.00108729 1e-05
0.0041208 0.00108756 1e-05
0.00423237 0.00108782 1e-05
0.00434393 0.00108809 1e-05
0.00445636 0.00108836 1e-05
0.00456879 0.00108863 1e-05
0.00468123 0.0010889 1e-05
0.00479366 0.00108917 1e-05
0.00490609 0.00108945 1e-05
0.0050194 0.00108972 1e-05
0.0051327 0.00109 1e-05
0.00524601 0.00109028 1e-05
0.00535931 0.00109056 1e-05
0.00547262 0.00109084 1e-05
0.00558681 0.00109112 1e-05
0.005701 0.0010914 1e-05
0.00581518 0.00109169 1e-05
0.00592937 0.00109198 1e-05
0.00604356 0.00109227 1e-05
0.00615863 0.00109256 1e-05
0.00627371 0.00109285 1e-05
0.00638878 0.00109314 1e-05
0.00650386 0.00109344 1e-05
0.00661893 0.00109373 1e-05
0.00663233 0.00109377 1e-05
0.00664574 0.0010938 1e-05
0.00665914 0.00109384 1e-05
0.00667255 0.00109387 1e-05
0.00668597 0.00109391 1e-05
0.00678853 0.00109417 1e-05
0.0068911 0.00109444 1e-05
0.00699366 0.0010947 1e-05
0.00709622 0.00109497 1e-05
0.00719878 0.00109523 1e-05
0.00731565 0.00109554 1e-05
0.00743252 0.00109584 1e-05
0.00754939 0.00109615 1e-05
0.00766626 0.00109645 1e-05
0.00778313 0.00109676 1e-05
0.00790091 0.00109706 1e-05
0.00801869 0.00109737 1e-05
0.00813647 0.00109768 1e-05
0.00825425 0.00109799 1e-05
0.00837203 0.00109829 1e-05
0.00849073 0.0010986 1e-05
0.00860942 0.00109891 1e-05
0.00872812 0.00109922 1e-05
0.00884682 0.00109952 1e-05
0.00896551 0.00109983 1e-05
0.00908513 0.00110013 1e-05
0.00920475 0.00110044 1e-05
0.00932437 0.00110075 1e-05
0.00944398 0.00110105 1e-05
0.0095636 0.00110135 1e-05
0.00968415 0.00110165 1e-05
0.0098047 0.00110195 1e-05
0.00992525 0.00110225 1e-05
0.0100458 0.00110255 1e-05
0.0101663 0.00110285 1e-05
0.0102878 0.00110313 1e-05
0.0104093 0.00110343 1e-05
0.0105308 0.00110372 1e-05
0.0106523 0.00110401 1e-05
0.0107738 0.0011043 1e-05
0.0108962 0.00110457 1e-05
0.0110186 0.00110486 1e-05
0.0111411 0.00110514 1e-05
0.0112635 0.00110541 1e-05
0.0113859 0.00110569 1e-05
0.0115093 0.00110595 1e-05
0.0116327 0.00110622 1e-05
0.0117561 0.00110648 1e-05
0.0118795 0.00110674 1e-05
0.0120028 0.001107 1e-05
0.0121272 0.00110724 1e-05
0.0122515 0.00110749 1e-05
0.0123759 0.00110774 1e-05
0.0125002 0.00110798 1e-05
0.0126245 0.00110822 1e-05
0.0127498 0.00110844 1e-05
0.0128752 0.00110866 1e-05
0.0130005 0.00110889 1e-05
0.0131258 0.0011091 1e-05
0.0132511 0.00110932 1e-05
0.0133774 0.00110951 1e-05
0.0135036 0.00110972 1e-05
0.0136299 0.00110991 1e-05
0.0137562 0.0011101 1e-05
0.0138825 0.00111029 1e-05
0.0140098 0.00111046 1e-05
0.014137 0.00111063 1e-05
0.0142643 0.00111079 1e-05
0.0143915 0.00111095 1e-05
0.0145188 0.0011111 1e-05
0.0146471 0.00111124 1e-05
0.0147753 0.00111138 1e-05
0.0149036 0.00111151 1e-05
0.0150318 0.00111163 1e-05
0.0151601 0.00111175 1e-05
0.0152893 0.00111185 1e-05
0.0154186 0.00111195 1e-05
0.0155478 0.00111205 1e-05
0.0156771 0.00111213 1e-05
0.0158063 0.00111221 1e-05
0.0159366 0.00111227 1e-05
0.0160668 0.00111233 1e-05
0.0161971 0.00111238 1e-05
0.0163274 0.00111243 1e-05
0.0164576 0.00111246 1e-05
0.0165889 0.00111248 1e-05
0.0167201 0.0011125 1e-05
0.0168514 0.0011125 1e-05
0.0169827 0.0011125 1e-05
0.0171139 0.00111248 1e-05
0.0172462 0.00111246 1e-05
0.0173785 0.00111243 1e-05
0.0175108 0.00111238 1e-05
0.0176431 0.00111233 1e-05
0.0177754 0.00111227 1e-05
0.0179087 0.0011122 1e-05
0.018042 0.00111211 1e-05
0.0181753 0.00111201 1e-05
0.0183087 0.00111191 1e-05
0.018442 0.00111179 1e-05
0.0185763 0.00111167 1e-05
0.0187107 0.00111153 1e-05
0.018845 0.00111137 1e-05
0.0189794 0.00111121 1e-05
0.0191137 0.00111103 1e-05
0.0192491 0.00111086 1e-05
0.0193845 0.00111066 1e-05
0.0195199 0.00111045 1e-05
0.0196553 0.00111023 1e-05
0.0197907 0.00110999 1e-05
0.0199272 0.00110976 1e-05
0.0200636 0.0011095 1e-05
0.0202001 0.00110923 1e-05
0.0203365 0.00110894 1e-05
0.020473 0.00110865 1e-05
0.0206105 0.00110836 1e-05
0.020748 0.00110804 1e-05
0.0208855 0.0011077 1e-05
0.021023 0.00110736 1e-05
0.0211606 0.001107 1e-05
0.0212991 0.00110665 1e-05
0.0214377 0.00110627 1e-05
0.0215763 0.00110586 1e-05
0.0217149 0.00110545 1e-05
0.0218535 0.00110503 1e-05
0.0219931 0.00110462 1e-05
0.0221328 0.00110417 1e-05
0.0222724 0.0011037 1e-05
0.0224121 0.00110321 1e-05
0.0225517 0.00110272 1e-05
0.0226925 0.00110225 1e-05
0.0228332 0.00110174 1e-05
0.022974 0.0011012 1e-05
0.0231147 0.00110064 1e-05
0.0232555 0.00110009 1e-05
0.0233973 0.00109955 1e-05
0.0235391 0.00109897 1e-05
0.023681 0.00109836 1e-05
0.0238228 0.00109773 1e-05
0.0239647 0.00109711 1e-05
0.0241076 0.0010965 1e-05
0.0242505 0.00109585 1e-05
0.0243935 0.00109517 1e-05
0.0245364 0.00109447 1e-05
0.0246794 0.00109378 1e-05
0.0248234 0.0010931 1e-05
0.0249675 0.00109238 1e-05
0.0251115 0.00109162 1e-05
0.0252556 0.00109085 1e-05
0.0253996 0.00109009 1e-05
0.0255448 0.00108934 1e-05
0.02569 0.00108855 1e-05
0.0258351 0.00108772 1e-05
0.0259803 0.00108688 1e-05
0.0261255 0.00108604 1e-05
0.0262718 0.00108522 1e-05
0.0264181 0.00108436 1e-05
0.0265644 0.00108345 1e-05
0.0267107 0.00108253 1e-05
0.026857 0.00108163 1e-05
0.0270044 0.00108073 1e-05
0.0271519 0.0010798 1e-05
0.0272993 0.00107882 1e-05
0.0274468 0.00107782 1e-05
0.0275942 0.00107684 1e-05
0.0277428 0.00107587 1e-05
0.0278914 0.00107486 1e-05
0.0280399 0.00107381 1e-05
0.0281885 0.00107274 1e-05
0.0283371 0.00107168 1e-05
0.0284869 0.00107064 1e-05
0.0286366 0.00106955 1e-05
0.0287863 0.00106842 1e-05
0.0289361 0.00106728 1e-05
0.0290858 0.00106615 1e-05
0.0292367 0.00106503 1e-05
0.0293876 0.00106387 1e-05
0.0295385 0.00106266 1e-05
0.0296894 0.00106144 1e-05
0.0298403 0.00106024 1e-05
0.0299924 0.00105904 1e-05
0.0301445 0.0010578 1e-05
0.0302966 0.00105652 1e-05
0.0304486 0.00105523 1e-05
0.0306007 0.00105395 1e-05
0.030754 0.00105267 1e-05
0.0309072 0.00105135 1e-05
0.0310605 0.00105 1e-05
0.0312138 0.00104862 1e-05
0.031367 0.00104727 1e-05
0.0315215 0.00104591 1e-05
0.0316759 0.00104452 1e-05
0.0318304 0.00104308 1e-05
0.0319848 0.00104163 1e-05
0.0321393 0.0010402 1e-05
0.0322949 0.00103876 1e-05
0.0324506 0.00103729 1e-05
0.0326062 0.00103578 1e-05
0.0327619 0.00103425 1e-05
0.0329175 0.00103274 1e-05
0.0330744 0.00103122 1e-05
0.0332313 0.00102967 1e-05
0.0333881 0.00102808 1e-05
0.033545 0.00102647 1e-05
0.0337019 0.00102488 1e-05
[...]
POINT_DATA 11945
 FIELD attributes 1
U 3 11945 float
9.9991 	0.00338528 	0 9.99878 	0.00857985 	0 9.99914 	0.0123458 	0 9.99951 	0.016102 	0 9.99989 	0.0198485 	0 10.003 	0.0407097 	0 10.0034 	0.0140914 	0 10.0062 	0.0132303 	0 10.009 	0.0123655 	0 10.0118 	0.0114971 	0 10.015 	0.0312559 	0 10.0175 	0.00797587 	0 10.0201 	0.00845512 	0 10.0226 	0.00893758 	0 10.0252 	0.00942329 	0 10.0254 	0.028606 	0 10.0286 	0.0117005 	0 10.0299 	0.0133541 	0 10.0313 	0.0150184 	0 10.0327 	0.0166935 	0 10.0301 	0.0329033 	0 10.0345 	0.0206685 	0 10.0353 	0.0222783 	0 10.0361 	0.0238973 	0 10.037 	0.0255254 	0 10.0327 	0.0377342 	0 10.0378 	0.0291904 	0 10.0383 	0.0304816 	0 10.0387 	0.031779 	0 10.0392 	0.0330827 	0 10.0338 	0.0416599 	0 10.0392 	0.0360593 	0 10.0393 	0.0370716 	0 10.0393 	0.0380879 	0 10.0394 	0.0391083 	0 10.0339 	0.0447934 	0 10.0388 	0.0414017 	0 10.0386 	0.0421814 	0 10.0384 	0.0429636 	0 10.0382 	0.0437484 	0 10.0332 	0.0472537 	0 10.0373 	0.0454335 	0 10.0369 	0.0460177 	0 10.0365 	0.0466034 	0 10.0361 	0.0471905 	0 10.0323 	0.0491195 	0 10.0349 	0.0483691 	0 10.0344 	0.0487936 	0 10.0339 	0.049219 	0 10.0333 	0.0496452 	0 10.0313 	0.0504798 	0 10.0323 	0.0503127 	0 10.0319 	0.0505001 	0 10.0315 	0.0506877 	0 10.0311 	0.0508756 	0 10.0307 	0.0510619 	0 10.0304 	0.05117 	0 10.0302 	0.0512781 	0 10.03 	0.0513863 	0 10.0297 	0.0514945 	0 10.0294 	0.0514919 	0 10.0288 	0.0517696 	0 10.0281 	0.051961 	0 10.0274 	0.0521525 	0 10.0266 	0.0523443 	0 10.0254 	0.0521955 	0 10.0253 	0.0525771 	0 10.0246 	0.0526904 	0 10.0238 	0.0528039 	0 10.023 	0.0529175 	0 10.0212 	0.0525378 	0 10.0218 	0.0529846 	0 10.021 	0.0530405 	0 10.0202 	0.0530964 	0 10.0194 	0.0531524 	0 10.017 	0.0526199 	0 10.0183 	0.0531095 	0 10.0176 	0.0531318 	0 10.0168 	0.0531542 	0 10.016 	0.0531765 	0 10.013 	0.0525545 	0 10.0152 	0.0530569 	0 10.0146 	0.0530496 	0 10.014 	0.0530422 	0 10.0133 	0.0530348 	0 10.0097 	0.0523453 	0 10.013 	0.0526387 	0 10.0127 	0.0523461 	0 10.0123 	0.0520534 	0 10.0119 	0.0517606 	0 10.0076 	0.0507329 	0 10.0122 	0.0503956 	0 10.0122 	0.0493337 	0 10.0121 	0.0482714 	0 10.0121 	0.0472087 	0 10.0072 	0.0454931 	0 10.0122 	0.0451642 	-3.07925e-21 10.0118 	0.0438612 	-8.30355e-21 10.0113 	0.0425577 	-1.35287e-20 10.0109 	0.0412538 	-1.87547e-20 10.0056 	0.0392793 	-2.43475e-20 10.01 	0.0393252 	-3.80953e-20 10.0092 	0.0382217 	-3.79568e-20 10.0084 	0.0371177 	-3.78139e-20 10.0075 	0.0360131 	-3.76667e-20 10.002 	0.0340232 	-2.30012e-20 10.0061 	0.0344151 	-2.4433e-20 10.005 	0.0334537 	-2.76292e-20 10.004 	0.0324916 	-3.0827e-20 10.0029 	0.0315289 	-3.40265e-20 9.99744 	0.0294663 	-3.7825e-20 10.001 	0.0301553 	-4.98886e-20 9.9998 	0.0294286 	-4.97517e-20 9.99855 	0.0287013 	-4.96126e-20 9.9973 	0.0279735 	-4.94711e-20 9.99188 	0.0260345 	-3.96143e-20 9.9949 	0.0269585 	-2.88413e-20 9.99341 	0.026535 	-1.74067e-20 9.99191 	0.0261111 	-5.97226e-21 9.99041 	0.0256869 	5.46187e-21 9.98513 	0.0240651 	1.69744e-20 9.98754 	0.0250642 	1.08991e-20 9.98582 	0.0248742 	6.83181e-21 9.9841 	0.0246841 	2.7646e-21 9.98238 	0.0244938 	-1.30255e-21 9.97731 	0.0232354 	-1.53077e-21 9.97909 	0.0241657 	5.44488e-21 9.97716 	0.0241193 	6.23329e-21 9.97523 	0.0240729 	7.02147e-21 9.9733 	0.0240265 	7.80942e-21 9.96848 	0.0231131 	1.07703e-21 9.96957 	0.0238991 	1.89053e-20 9.96741 	0.0239366 	2.24364e-20 9.96525 	0.0239742 	2.59679e-20 9.96308 	0.0240118 	2.94998e-20 9.95849 	0.0234059 	1.87852e-20 9.95884 	0.0240226 	1.62925e-20 9.95641 	0.0241045 	1.20991e-20 9.95398 	0.0241865 	7.90572e-21 9.95154 	0.0242685 	3.71225e-21 9.94718 	0.0239177 	-9.90436e-22 9.9467 	0.0243674 	5.43976e-21 9.94396 	0.0244647 	1.15712e-20 9.94122 	0.0245622 	1.77025e-20 9.93848 	0.0246596 	2.38337e-20 9.93435 	0.024503 	2.96326e-20 9.93293 	0.0248016 	2.39377e-20 9.92984 	0.0248938 	1.79103e-20 9.92676 	0.0249861 	1.18828e-20 9.92368 	0.0250784 	5.85519e-21 9.91981 	0.0250566 	7.35493e-23 9.9173 	0.0252244 	-5.80943e-21 9.91383 	0.0252976 	-1.19392e-20 9.91037 	0.0253709 	-1.80689e-20 9.9069 	0.0254443 	-2.41986e-20 9.90335 	0.0255076 	-3.03099e-20 9.90301 	0.0255215 	-2.89538e-20 9.90256 	0.0255268 	-2.7554e-20 9.90211 	0.0255321 	-2.61543e-20 9.90166 	0.0255373 	-2.47545e-20 9.90121 	0.0255426 	-2.33523e-20 9.89774 	0.0255814 	-1.26415e-20 9.89428 	0.0256202 	-1.93083e-21 9.89081 	0.0256591 	8.77987e-21 9.88734 	0.0256979 	1.94906e-20 9.88013 	0.0256419 	2.99471e-20 9.87931 	0.0257531 	3.66415e-20 9.87494 	0.0257638 	4.20048e-20 9.87056 	0.0257746 	4.7368e-20 9.86618 	0.0257853 	5.27312e-20 9.85365 	0.0255489 	5.46097e-20 9.8565 	0.0257694 	4.84369e-20 9.85164 	0.0257428 	4.22937e-20 9.84678 	0.0257162 	3.61504e-20 9.84192 	0.0256895 	3.00071e-20 9.82444 	0.0252387 	2.51428e-20 9.83094 	0.0255792 	1.1727e-20 9.82558 	0.025512 	-2.75378e-21 9.82021 	0.0254447 	-1.72345e-20 9.81484 	0.0253775 	-3.17153e-20 9.79245 	0.0247044 	-4.33986e-20 9.80249 	0.0251594 	-3.61622e-20 9.79661 	0.0250495 	-3.57028e-20 9.79072 	0.0249396 	-3.52425e-20 9.78483 	0.0248296 	-3.47812e-20 9.75769 	0.0239443 	-4.35765e-20 9.77105 	0.0244957 	-3.58982e-20 9.76464 	0.024342 	-2.63703e-20 9.75823 	0.0241883 	-1.68422e-20 9.75181 	0.0240344 	-7.31399e-21 9.72021 	0.02296 	0 9.73657 	0.0235808 	-3.90645e-21 9.72964 	0.0233825 	-9.01827e-21 9.7227 	0.0231841 	-1.41299e-20 9.71577 	0.0229855 	-1.92415e-20 9.68011 	0.0217543 	-2.1476e-20 9.69907 	0.0224113 	-2.2897e-20 9.69162 	0.0221675 	-2.28365e-20 9.68418 	0.0219236 	-2.27757e-20 9.67673 	0.0216795 	-2.27145e-20 9.63751 	0.0203297 	-2.20503e-20 9.6586 	0.0209859 	-1.90441e-20 9.65066 	0.0206959 	-1.38156e-20 9.64272 	0.0204056 	-8.58693e-21 9.63477 	0.0201151 	-3.35804e-21 9.59258 	0.0186888 	-1.25799e-21 9.61528 	0.0193055 	-6.00974e-21 9.60687 	0.0189685 	-1.54516e-20 9.59845 	0.0186313 	-2.4893e-20 9.59003 	0.0182938 	-3.43339e-20 9.54549 	0.016835 	-3.99983e-20 9.56926 	0.0173731 	-2.01274e-20 9.56041 	0.0169889 	-1.95825e-20 9.55154 	0.0166044 	-1.90336e-20 9.54267 	0.0162196 	-1.84809e-20 9.49646 	0.0147731 	-3.95047e-20 9.52073 	0.0151944 	-3.40365e-20 9.51146 	0.0147632 	-2.43279e-20 9.50218 	0.0143316 	-1.46186e-20 9.49289 	0.0138995 	-4.90869e-21 9.44567 	0.0125097 	0 9.46993 	0.0127777 	0 9.46027 	0.0123001 	0 9.4506 	0.0118219 	0 9.44093 	0.0113432 	0 9.39336 	0.0100533 	0 9.41708 	0.010134 	4.58341e-21 9.40707 	0.00961104 	1.48523e-20 9.39705 	0.00908748 	2.51203e-20 9.38701 	0.00856329 	3.53875e-20 9.33972 	0.00741446 	4.56701e-20 9.36245 	0.00727666 	4.32999e-20 9.35212 	0.00671017 	5.33954e-20 9.34177 	0.00614296 	6.34879e-20 9.33141 	0.00557501 	7.35777e-20 9.28497 	0.00460571 	8.83304e-20 9.30632 	0.00422188 	7.29667e-20 9.29569 	0.00361411 	6.22198e-20 9.28505 	0.00300551 	5.14697e-20 9.27439 	0.00239608 	4.07165e-20 9.2293 	0.00164129 	4.24425e-20 9.24893 	0.000988012 	3.30047e-20 9.23804 	0.000341762 	1.80046e-20 9.22714 	-0.000305409 	3.00386e-21 9.21621 	-0.000953505 	-1.19975e-20 9.17289 	-0.00146305 	-1.69405e-20 9.19056 	-0.0024045 	2.13425e-20 9.17944 	-0.00308597 	2.20087e-20 9.16829 	-0.00376846 	2.26814e-20 9.15712 	-0.00445196 	2.33606e-20 9.11592 	-0.00469046 	-1.6731e-20 9.13145 	-0.00593364 	-1.43348e-20 9.12012 	-0.00664674 	-9.73172e-21 9.10876 	-0.00736093 	-5.12812e-21 9.09737 	-0.00807621 	-5.23961e-22 9.05855 	-0.00802352 	0 9.07183 	-0.00957641 	0 9.06031 	-0.0103173 	0 9.04876 	-0.0110594 	0 9.03719 	-0.0118026 	0 9.00091 	-0.0114448 	0 9.01191 	-0.0133095 	0 9.00023 	-0.0140743 	0 8.98852 	-0.0148403 	0 8.97629 	-0.0155753 	0 8.94314 	-0.0149372 	0 8.95087 	-0.0170411 	0 8.94006 	-0.0178946 	6.45606e-21 8.92821 	-0.0186805 	1.32657e-20 8.91465 	-0.0193127 	2.11363e-20 8.88535 	-0.0184843 	3.90097e-20 8.88981 	-0.0207643 	1.58874e-19 8.87998 	-0.0217558 	1.71124e-19 8.868 	-0.0225578 	1.67474e-19 8.8536 	-0.0230533 	1.43453e-19 8.82766 	-0.0220707 	2.14996e-20 8.82931 	-0.0244879 	-3.96861e-20 8.82012 	-0.0256369 	-5.84794e-20 8.80804 	-0.0264511 	-6.60578e-20 8.79318 	-0.0267834 	-6.07048e-20 8.77015 	-0.0256814 	-1.69443e-20 8.76941 	-0.0281983 	-1.45868e-20 8.76061 	-0.0295177 	-2.62568e-21 8.74845 	-0.0303404 	1.33224e-20 8.73346 	-0.0304903 	2.62841e-20 8.71291 	-0.0293024 	3.33186e-20 8.71015 	-0.0318838 	2.58591e-20 8.70153 	-0.0333803 	2.96043e-20 8.68931 	-0.0342081 	4.02538e-20 8.67445 	-0.0341643 	6.00832e-20 8.65601 	-0.032922 	9.2525e-20 8.65156 	-0.0355364 	1.49112e-19 8.64297 	-0.037211 	1.65749e-19 8.6307 	-0.0380413 	1.46533e-19 8.61616 	-0.0378001 	9.77363e-20 8.5995 	-0.0365328 	2.06415e-20 8.59364 	-0.0391524 	8.65272e-21 8.58497 	-0.0410011 	-2.93686e-21 8.57266 	-0.0418316 	-1.40033e-20 8.5586 	-0.0413957 	-2.6308e-20 8.54343 	-0.0401295 	-3.94247e-20 8.53639 	-0.0427301 	-2.60533e-20 8.52756 	-0.0447439 	-1.03471e-20 8.51523 	-0.0455725 	1.00546e-20 8.50175 	-0.0449494 	2.31172e-20 8.48781 	-0.0437059 	3.30509e-20 8.4798 	-0.0462669 	2.27365e-20 8.47073 	-0.0484328 	1.1386e-20 8.4584 	-0.049257 	-3.45103e-21 8.44557 	-0.0484581 	1.38013e-21 8.43266 	-0.0472549 	1.10925e-20 8.42383 	-0.0497594 	4.52125e-20 8.41449 	-0.0520617 	7.41347e-20 8.40216 	-0.0528792 	6.5273e-20 8.39004 	-0.0519187 	2.24955e-20 8.37798 	-0.0507695 	-2.3865e-20 8.36846 	-0.0532044 	-1.95382e-20 8.35881 	-0.0556261 	-1.51498e-20 8.34649 	-0.056413 	-6.11474e-21 8.33511 	-0.0553285 	-2.54775e-20 8.32376 	-0.054243 	-4.48392e-20 8.31365 	-0.0565991 	-1.53561e-19 8.30344 	-0.0589579 	-2.62287e-19 8.29152 	-0.0596996 	-2.62027e-19 8.28074 	-0.0586846 	-1.47765e-19 8.27 	-0.0576686 	-3.35009e-20 8.25937 	-0.0599399 	-1.99318e-20 8.24865 	-0.0622137 	-6.3635e-21 8.23717 	-0.0629264 	1.20273e-20 8.2269 	-0.0619832 	2.93892e-20 8.21666 	-0.061039 	4.67535e-20 8.20558 	-0.0632223 	7.06996e-20 8.19441 	-0.0654079 	9.464e-20 8.18335 	-0.0660919 	9.03626e-20 8.17352 	-0.0652201 	5.47416e-20 8.16371 	-0.0643474 	1.91235e-20 8.15222 	-0.0664419 	-7.07277e-20 8.14065 	-0.0685387 	-1.60589e-19 8.13001 	-0.069195 	-1.70362e-19 8.12054 	-0.0683921 	-9.88002e-20 8.11111 	-0.0675885 	-2.72356e-20 8.09925 	-0.0695958 	-1.67412e-20 8.08731 	-0.0716053 	-6.25103e-21 8.07707 	-0.0722348 	-7.93677e-21 8.06793 	-0.0714967 	-2.14026e-20 8.05882 	-0.0707579 	-3.4867e-20 8.04661 	-0.072681 	-1.02659e-19 8.03433 	-0.0746061 	-1.70455e-19 8.02449 	-0.0752097 	-1.69024e-19 8.01563 	-0.0745302 	-9.90576e-20 8.00679 	-0.0738501 	-2.90885e-20 7.99426 	-0.0756928 	-1.88746e-20 7.98167 	-0.0775374 	-8.66473e-21 7.97219 	-0.0781155 	1.12949e-21 7.96358 	-0.0774874 	1.03189e-20 7.95498 	-0.0768588 	1.95096e-20 7.94216 	-0.0786255 	9.80862e-21 7.92926 	-0.0803941 	1.03905e-22 7.92015 	-0.0809261 	-2.62453e-21 7.91174 	-0.0803625 	1.73877e-20 7.90336 	-0.0797776 	3.78368e-20 7.89025 	-0.0814733 	5.49255e-20 7.87759 	-0.0830198 	7.12603e-20 7.86845 	-0.083525 	8.24495e-20 7.8601 	-0.0831495 	6.77566e-20 7.85191 	-0.0826007 	4.79788e-20 7.83853 	-0.0842307 	6.68207e-20 7.82622 	-0.0855577 	8.12093e-20 7.81702 	-0.0860477 	8.33549e-20 7.80862 	-0.0858443 	5.71993e-20 7.80061 	-0.0853241 	1.81297e-20 7.78697 	-0.0868942 	2.05754e-20 7.7751 	-0.0880153 	1.72088e-20 7.76583 	-0.0884889 	5.4702e-21 7.75731 	-0.0884437 	-4.78277e-21 7.74946 	-0.0879455 	-1.37403e-20 7.73557 	-0.0894616 	-4.22394e-21 7.72421 	-0.0903884 	0 7.71488 	-0.0908446 	0 7.70615 	-0.0909468 	0 7.69845 	-0.0904648 	0 7.68434 	-0.0919327 	0 7.67356 	-0.0926745 	3.30746e-21 7.66417 	-0.0931131 	7.99701e-21 7.65517 	-0.093354 	1.08187e-20 7.64762 	-0.0928836 	6.93079e-21 7.63329 	-0.0943092 	1.16868e-20 7.62317 	-0.0948733 	1.26125e-20 7.61374 	-0.0952943 	1.29016e-20 7.6044 	-0.0956675 	1.29617e-20 7.59699 	-0.0952048 	9.02949e-21 7.58252 	-0.0965822 	1.36891e-20 7.57308 	-0.0969856 	4.75248e-21 7.56362 	-0.0973894 	-4.18416e-21 7.55414 	-0.0977936 	-1.31208e-20 7.54662 	-0.0974327 	-1.81491e-20 7.53281 	-0.0986264 	-1.39373e-20 7.52335 	-0.0990136 	-9.81051e-21 7.51387 	-0.0994011 	-5.6842e-21 7.50437 	-0.099789 	-1.55842e-21 7.49659 	-0.0995725 	1.14465e-20 7.48352 	-0.100589 	4.66419e-20 7.47406 	-0.100961 	4.89431e-20 7.46459 	-0.101334 	5.12368e-20 7.45509 	-0.101707 	5.35229e-20 7.44698 	-0.101631 	2.84281e-20 7.43474 	-0.102475 	1.09587e-20 7.42531 	-0.102834 	-1.80062e-21 7.41585 	-0.103194 	-1.45604e-20 7.40639 	-0.103554 	-2.73206e-20 7.39791 	-0.103616 	-3.85556e-20 7.38658 	-0.104291 	-5.76282e-20 7.3772 	-0.104639 	-5.59584e-20 7.3678 	-0.104989 	-5.4283e-20 7.35838 	-0.105338 	-5.26018e-20 7.34949 	-0.105538 	-4.32331e-20 7.33918 	-0.106045 	-2.88063e-20 7.32987 	-0.106386 	-1.66429e-20 7.32055 	-0.106728 	-4.48005e-21 7.31122 	-0.107069 	7.68233e-21 7.30188 	-0.107407 	1.96987e-20 7.30155 	-0.107423 	1.9782e-20 7.30125 	-0.107434 	1.97915e-20 7.30095 	-0.107445 	1.9801e-20 7.30065 	-0.107456 	1.98104e-20 7.30035 	-0.107467 	1.98199e-20 7.29118 	-0.107799 	2.0696e-20 7.28199 	-0.108131 	2.15747e-20 7.27279 	-0.108463 	2.24563e-20 7.26357 	-0.108796 	2.33406e-20 7.25582 	-0.108969 	1.91359e-20 7.2455 	-0.109447 	6.19666e-21 7.23616 	-0.10979 	-8.81369e-21 7.22679 	-0.110134 	-2.38231e-20 7.2174 	-0.110478 	-3.88316e-20 7.21106 	-0.110494 	-5.52093e-20 7.19989 	-0.111112 	-8.48919e-20 7.19072 	-0.111461 	-8.75978e-20 7.18154 	-0.111809 	-9.03124e-20 7.17234 	-0.112158 	-9.30358e-20 7.16777 	-0.11201 	-5.45989e-20 7.15577 	-0.112767 	-3.98777e-20 7.14683 	-0.113126 	-3.15813e-20 7.13787 	-0.113486 	-2.32829e-20 7.1289 	-0.113846 	-1.49825e-20 7.12616 	-0.113538 	-1.55187e-20 7.11337 	-0.114433 	-3.59299e-20 7.1047 	-0.11481 	-3.68302e-20 7.09601 	-0.115188 	-3.77335e-20 7.0873 	-0.115566 	-3.86398e-20 7.08645 	-0.115105 	-1.48417e-20 7.07295 	-0.116131 	-1.09455e-20 7.06454 	-0.116542 	-7.13303e-21 7.05616 	-0.116946 	-3.32103e-21 7.04885 	-0.117235 	0 7.04886 	-0.116744 	0 7.03575 	-0.117781 	0 7.0266 	-0.118355 	-2.55816e-21 7.01858 	-0.118796 	-5.85347e-21 7.01328 	-0.118948 	-9.1912e-21 7.01363 	-0.1185 	-1.26177e-20 7.00095 	-0.119557 	-3.63732e-20 6.99111 	-0.120296 	-4.55054e-20 6.98349 	-0.120786 	-4.31738e-20 6.98024 	-0.120815 	-2.76676e-20 6.98096 	-0.120425 	-2.47677e-22 6.96877 	-0.121514 	2.6761e-20 6.95828 	-0.122421 	4.38312e-20 6.9511 	-0.122975 	4.17335e-20 6.94994 	-0.1229 	1.91905e-20 6.95106 	-0.122587 	-1.10316e-20 6.9394 	-0.123724 	-7.48978e-21 6.9283 	-0.1248 	-4.71849e-21 6.92161 	-0.125437 	-7.67809e-21 6.92257 	-0.125282 	-1.4087e-20 6.9241 	-0.125069 	-2.075e-20 6.91303 	-0.12627 	-1.35055e-20 6.90191 	-0.127471 	-6.25837e-21 6.89633 	-0.128145 	5.70337e-21 6.89829 	-0.128057 	1.2118e-20 6.90025 	-0.127969 	1.85331e-20 6.8898 	-0.129256 	1.15439e-20 6.87931 	-0.130543 	4.55204e-21 6.87483 	-0.131271 	2.22215e-21 6.87723 	-0.131337 	2.54562e-21 6.87962 	-0.131403 	2.86902e-21 6.86984 	-0.132801 	-4.86259e-20 6.86001 	-0.134198 	-1.00127e-19 6.85664 	-0.135003 	-1.02317e-19 6.85948 	-0.135255 	-5.52885e-20 6.86231 	-0.135508 	-8.25914e-21 6.85322 	-0.137045 	1.86685e-20 6.84407 	-0.138582 	4.55913e-20 6.84182 	-0.139488 	5.25654e-20 6.84509 	-0.139965 	4.31311e-20 6.84835 	-0.140441 	3.36945e-20 6.83996 	-0.142151 	1.68118e-20 6.83161 	-0.143851 	2.28237e-22 6.83068 	-0.144879 	6.33311e-21 6.83406 	-0.145639 	1.24456e-20 6.83772 	-0.146378 	1.856e-20 6.83005 	-0.148297 	6.10173e-20 6.82413 	-0.15006 	9.41482e-20 6.82372 	-0.151346 	9.87695e-20 6.82633 	-0.15247 	6.9577e-20 6.83038 	-0.153517 	2.40735e-20 6.82341 	-0.155685 	9.51603e-20 6.81987 	-0.15757 	1.27316e-19 6.81997 	-0.159158 	1.1853e-19 6.82179 	-0.160669 	8.2007e-20 6.82619 	-0.162068 	4.68651e-21 6.81991 	-0.164529 	-1.099e-20 6.8187 	-0.166604 	-1.84414e-20 6.81926 	-0.168541 	-2.2958e-20 6.82028 	-0.17046 	-2.5848e-20 6.82497 	-0.172258 	-1.69923e-20 6.81935 	-0.175058 	-4.46962e-22 6.82039 	-0.177395 	5.75457e-21 6.82138 	-0.179729 	1.19478e-20 6.8223 	-0.182061 	1.81447e-20 6.8265 	-0.184322 	2.39444e-20 6.82327 	-0.1874 	5.32946e-20 6.8247 	-0.190184 	5.11335e-20 6.82606 	-0.192966 	4.8945e-20 6.82734 	-0.195745 	4.67293e-20 6.83048 	-0.198505 	2.40106e-20 6.82957 	-0.201937 	1.42733e-20 6.83131 	-0.205219 	1.63346e-20 6.83297 	-0.208497 	1.84277e-20 6.83453 	-0.211772 	2.05524e-20 6.83658 	-0.215046 	2.63487e-20 6.83666 	-0.216696 	3.33546e-20 6.83752 	-0.218309 	3.50357e-20 6.83836 	-0.21992 	3.67112e-20 6.83919 	-0.221532 	3.83813e-20 6.83994 	-0.223035 	3.99349e-20 6.84083 	-0.225235 	4.26745e-20 6.84169 	-0.227435 	4.54076e-20 6.84251 	-0.229632 	4.81342e-20 6.8433 	-0.231828 	5.08543e-20 6.84453 	-0.233966 	5.47376e-20 6.84632 	-0.238315 	4.40744e-20 6.84811 	-0.242667 	4.04398e-20 6.84978 	-0.247013 	3.67479e-20 6.85133 	-0.251352 	3.29987e-20 6.85398 	-0.255553 	5.10414e-20 6.85569 	-0.260493 	5.39846e-20 6.85754 	-0.265466 	4.87298e-20 6.85924 	-0.270431 	4.3482e-20 6.86081 	-0.275389 	3.82413e-20 6.86413 	-0.280158 	2.23374e-20 6.86579 	-0.285714 	-5.28318e-21 6.86755 	-0.291334 	-2.03738e-20 6.86919 	-0.296957 	-3.34759e-20 6.87134 	-0.302515 	-3.67072e-20 6.87445 	-0.307972 	-2.30765e-20 6.8761 	-0.314204 	-1.468e-20 6.87764 	-0.32046 	-8.78764e-21 6.87912 	-0.326775 	-7.82015e-21 6.8817 	-0.332987 	-1.39958e-20 6.88441 	-0.339172 	-2.17847e-20 6.88595 	-0.346115 	-1.33656e-20 6.8873 	-0.353046 	-4.94045e-21 6.88889 	-0.360031 	-2.90327e-21 6.89127 	-0.366979 	-4.96108e-21 6.89346 	-0.373919 	-7.00275e-21 6.89478 	-0.381606 	1.82661e-20 6.89589 	-0.389279 	4.35527e-20 6.89771 	-0.396916 	4.9198e-20 6.89947 	-0.404644 	3.1486e-20 6.90101 	-0.412362 	1.37951e-20 6.90199 	-0.420824 	1.35056e-20 6.90308 	-0.429263 	1.30191e-20 6.90455 	-0.437676 	1.21639e-20 6.9057 	-0.446121 	1.20286e-20 6.90647 	-0.454637 	1.30842e-20 6.90698 	-0.463898 	3.62359e-20 6.90794 	-0.473147 	3.5674e-20 6.90869 	-0.482378 	3.41034e-20 6.90919 	-0.49159 	3.25026e-20 6.90921 	-0.500861 	2.07903e-20 6.90926 	-0.507001 	2.19752e-20 6.90941 	-0.513144 	2.29239e-20 6.90946 	-0.519279 	2.38842e-20 6.90941 	-0.525406 	2.4856e-20 6.90928 	-0.530815 	2.57253e-20 6.90956 	-0.534866 	2.6294e-20 6.9098 	-0.538915 	2.68671e-20 6.91 	-0.542959 	2.74446e-20 6.91016 	-0.547 	2.80264e-20 6.91017 	-0.551048 	2.41643e-20 6.9111 	-0.561896 	1.96696e-20 6.91138 	-0.572761 	1.59772e-20 6.9114 	-0.583602 	1.2262e-20 6.91115 	-0.594419 	8.52385e-21 6.91009 	-0.605271 	1.03728e-20 6.91081 	-0.616897 	7.28261e-21 6.91041 	-0.628561 	5.66742e-21 6.90935 	-0.640228 	4.6979e-21 6.9075 	-0.651906 	2.10247e-21 6.90511 	-0.663594 	-1.35491e-21 6.90476 	-0.676067 	-5.51963e-22 6.9041 	-0.688512 	2.25211e-22 6.90193 	-0.700987 	-1.16624e-21 6.89838 	-0.713489 	-4.74863e-21 6.8945 	-0.725983 	-8.36318e-21 6.89291 	-0.739285 	-7.68662e-21 6.8907 	-0.752566 	-6.23944e-21 6.88733 	-0.76585 	-2.4452e-21 6.88309 	-0.779105 	0 6.87754 	-0.792363 	0 6.87445 	-0.806135 	0 6.86988 	-0.819892 	0 6.86496 	-0.833616 	0 6.85968 	-0.847306 	0 6.85501 	-0.85865 	0 6.85471 	-0.859433 	0 6.85441 	-0.860216 	0 6.8541 	-0.860999 	0 6.85379 	-0.861782 	0 6.85348 	-0.862571 	0 6.84812 	-0.877276 	0 6.84231 	-0.89194 	0 6.83613 	-0.906563 	0 6.82958 	-0.921147 	-4.46284e-23 6.82221 	-0.935821 	-1.0867e-20 6.81592 	-0.951258 	-4.35948e-21 6.80888 	-0.966619 	2.53277e-23 6.80071 	-0.98187 	-4.7245e-23 6.79149 	-0.997106 	-1.37573e-20 6.78183 	-1.01235 	-2.75583e-20 6.77359 	-1.02842 	-3.71335e-20 6.76487 	-1.04444 	-4.53148e-20 6.75488 	-1.06037 	-3.5377e-20 6.74385 	-1.07616 	-2.32111e-20 6.73168 	-1.09186 	-8.52354e-21 6.72432 	-1.1036 	-7.53216e-21 6.71602 	-1.11523 	-3.4359e-21 6.70738 	-1.12682 	1.17101e-21 6.69851 	-1.13839 	5.78075e-21 6.69046 	-1.14861 	9.86549e-21 6.68671 	-1.15363 	1.157e-20 6.68293 	-1.15864 	1.32735e-20 6.6791 	-1.16365 	1.4976e-20 6.67518 	-1.16866 	1.57615e-20 6.67096 	-1.17366 	1.18206e-20 6.65876 	-1.19059 	3.59685e-20 6.64517 	-1.20727 	3.83237e-20 6.63113 	-1.22389 	4.08406e-20 6.61594 	-1.24039 	1.48217e-20 6.59965 	-1.25685 	-3.44688e-20 6.58533 	-1.27418 	-8.24668e-20 6.57053 	-1.29145 	-1.30481e-19 6.55399 	-1.30844 	-1.10034e-19 6.53534 	-1.32496 	-5.00914e-20 6.51587 	-1.34146 	1.40363e-20 6.50456 	-1.35302 	5.55451e-20 6.4922 	-1.36435 	7.10028e-20 6.47922 	-1.37556 	7.35129e-20 6.46601 	-1.38674 	7.5