# vtk DataFile Version 2.0
track0
ASCII
DATASET POLYDATA
POINTS 11945 float
-0.0205 0.001 1e-05
-0.0202034 0.0010001 1e-05
-0.0199069 0.00100035 1e-05
-0.0196103 0.00100072 1e-05
-0.0193137 0.0010012 1e-05
-0.0190172 0.00100179 1e-05
-0.0187132 0.00100302 1e-05
-0.0184093 0.00100345 1e-05
-0.0181054 0.00100385 1e-05
-0.0178015 0.00100423 1e-05
-0.0174976 0.00100458 1e-05
-0.0172058 0.00100549 1e-05
-0.016914 0.00100572 1e-05
-0.0166222 0.00100597 1e-05
-0.0163305 0.00100623 1e-05
-0.0160387 0.0010065 1e-05
-0.0157586 0.0010073 1e-05
-0.0154784 0.00100763 1e-05
-0.0151983 0.001008 1e-05
-0.0149182 0.00100842 1e-05
-0.0146381 0.00100889 1e-05
-0.0143692 0.00100977 1e-05
-0.0141002 0.00101032 1e-05
-0.0138313 0.00101092 1e-05
-0.0135624 0.00101156 1e-05
-0.0132934 0.00101224 1e-05
-0.0130353 0.00101322 1e-05
-0.0127771 0.00101397 1e-05
-0.0125189 0.00101475 1e-05
-0.0122607 0.00101557 1e-05
-0.0120025 0.00101642 1e-05
-0.0117547 0.00101745 1e-05
-0.0115068 0.00101834 1e-05
-0.0112589 0.00101925 1e-05
-0.0110111 0.00102019 1e-05
-0.0107632 0.00102116 1e-05
-0.0105252 0.00102222 1e-05
-0.0102873 0.0010232 1e-05
-0.0100493 0.0010242 1e-05
-0.00981133 0.00102522 1e-05
-0.00957337 0.00102626 1e-05
-0.00934491 0.00102733 1e-05
-0.00911645 0.00102837 1e-05
-0.00888799 0.00102942 1e-05
-0.00865954 0.00103048 1e-05
-0.00843108 0.00103155 1e-05
-0.00821175 0.00103262 1e-05
-0.00799242 0.00103368 1e-05
-0.00777309 0.00103475 1e-05
-0.00755376 0.00103582 1e-05
-0.00733443 0.00103691 1e-05
-0.00720153 0.00103758 1e-05
-0.00706863 0.00103824 1e-05
-0.00693573 0.00103891 1e-05
-0.00680282 0.00103959 1e-05
-0.0066711 0.00104025 1e-05
-0.0065932 0.00104065 1e-05
-0.0065153 0.00104105 1e-05
-0.0064374 0.00104145 1e-05
-0.0063595 0.00104184 1e-05
-0.0062816 0.00104224 1e-05
-0.00607944 0.00104328 1e-05
-0.00587729 0.00104433 1e-05
-0.00567514 0.00104537 1e-05
-0.00547298 0.00104642 1e-05
-0.00527083 0.00104748 1e-05
-0.00507675 0.00104849 1e-05
-0.00488267 0.00104951 1e-05
-0.0046886 0.00105053 1e-05
-0.00449452 0.00105155 1e-05
-0.00430044 0.00105258 1e-05
-0.00411412 0.00105355 1e-05
-0.0039278 0.00105454 1e-05
-0.00374147 0.00105552 1e-05
-0.00355515 0.00105651 1e-05
-0.00336883 0.0010575 1e-05
-0.00318995 0.00105844 1e-05
-0.00301107 0.00105939 1e-05
-0.00283219 0.00106034 1e-05
-0.00265331 0.00106129 1e-05
-0.00247443 0.00106223 1e-05
-0.0023027 0.00106314 1e-05
-0.00213097 0.00106405 1e-05
-0.00195924 0.00106496 1e-05
-0.0017875 0.00106587 1e-05
-0.00161577 0.00106677 1e-05
-0.0014509 0.00106764 1e-05
-0.00128603 0.0010685 1e-05
-0.00112116 0.00106937 1e-05
-0.000956289 0.00107022 1e-05
-0.000791418 0.00107108 1e-05
-0.000633135 0.00107188 1e-05
-0.000474851 0.00107267 1e-05
-0.000316567 0.00107345 1e-05
-0.000158283 0.00107422 1e-05
0 0.00107496 1e-05
0.000105677 0.00107544 1e-05
0.000211355 0.00107592 1e-05
0.000317032 0.00107638 1e-05
0.00042271 0.00107683 1e-05
0.000528387 0.00107727 1e-05
0.000634886 0.00107769 1e-05
0.000741385 0.00107811 1e-05
0.000847885 0.00107851 1e-05
0.000954384 0.00107891 1e-05
0.00106088 0.00107929 1e-05
0.00116821 0.00107966 1e-05
0.00127554 0.00108002 1e-05
0.00138286 0.00108038 1e-05
0.00149019 0.00108073 1e-05
0.00159752 0.00108107 1e-05
0.00170568 0.00108139 1e-05
0.00181384 0.00108171 1e-05
0.001922 0.00108203 1e-05
0.00203016 0.00108234 1e-05
0.00213833 0.00108265 1e-05
0.00224733 0.00108293 1e-05
0.00235633 0.00108322 1e-05
0.00246533 0.00108351 1e-05
0.00257434 0.0010838 1e-05
0.00268334 0.00108408 1e-05
0.00279319 0.00108434 1e-05
0.00290304 0.00108462 1e-05
0.00301289 0.00108489 1e-05
0.00312274 0.00108516 1e-05
0.00323259 0.00108543 1e-05
0.00334329 0.00108569 1e-05
0.003454 0.00108596 1e-05
0.0035647 0.00108623 1e-05
0.0036754 0.00108649 1e-05
0.00378611 0.00108676 1e-05
0.00389767 0.00108702 1e-05
0.00400924 0.00108729 1e-05
0.0041208 0.00108756 1e-05
0.00423237 0.00108782 1e-05
0.00434393 0.00108809 1e-05
0.00445636 0.00108836 1e-05
0.00456879 0.00108863 1e-05
0.00468123 0.0010889 1e-05
0.00479366 0.00108917 1e-05
0.00490609 0.00108945 1e-05
0.0050194 0.00108972 1e-05
0.0051327 0.00109 1e-05
0.00524601 0.00109028 1e-05
0.00535931 0.00109056 1e-05
0.00547262 0.00109084 1e-05
0.00558681 0.00109112 1e-05
0.005701 0.0010914 1e-05
0.00581518 0.00109169 1e-05
0.00592937 0.00109198 1e-05
0.00604356 0.00109227 1e-05
0.00615863 0.00109256 1e-05
0.00627371 0.00109285 1e-05
0.00638878 0.00109314 1e-05
0.00650386 0.00109344 1e-05
0.00661893 0.00109373 1e-05
0.00663233 0.00109377 1e-05
0.00664574 0.0010938 1e-05
0.00665914 0.00109384 1e-05
0.00667255 0.00109387 1e-05
0.00668597 0.00109391 1e-05
0.00678853 0.00109417 1e-05
0.0068911 0.00109444 1e-05
0.00699366 0.0010947 1e-05
0.00709622 0.00109497 1e-05
0.00719878 0.00109523 1e-05
0.00731565 0.00109554 1e-05
0.00743252 0.00109584 1e-05
0.00754939 0.00109615 1e-05
0.00766626 0.00109645 1e-05
0.00778313 0.00109676 1e-05
0.00790091 0.00109706 1e-05
0.00801869 0.00109737 1e-05
0.00813647 0.00109768 1e-05
0.00825425 0.00109799 1e-05
0.00837203 0.00109829 1e-05
0.00849073 0.0010986 1e-05
0.00860942 0.00109891 1e-05
0.00872812 0.00109922 1e-05
0.00884682 0.00109952 1e-05
0.00896551 0.00109983 1e-05
0.00908513 0.00110013 1e-05
0.00920475 0.00110044 1e-05
0.00932437 0.00110075 1e-05
0.00944398 0.00110105 1e-05
0.0095636 0.00110135 1e-05
0.00968415 0.00110165 1e-05
0.0098047 0.00110195 1e-05
0.00992525 0.00110225 1e-05
0.0100458 0.00110255 1e-05
0.0101663 0.00110285 1e-05
0.0102878 0.00110313 1e-05
0.0104093 0.00110343 1e-05
0.0105308 0.00110372 1e-05
0.0106523 0.00110401 1e-05
0.0107738 0.0011043 1e-05
0.0108962 0.00110457 1e-05
0.0110186 0.00110486 1e-05
0.0111411 0.00110514 1e-05
0.0112635 0.00110541 1e-05
0.0113859 0.00110569 1e-05
0.0115093 0.00110595 1e-05
0.0116327 0.00110622 1e-05
0.0117561 0.00110648 1e-05
0.0118795 0.00110674 1e-05
0.0120028 0.001107 1e-05
0.0121272 0.00110724 1e-05
0.0122515 0.00110749 1e-05
0.0123759 0.00110774 1e-05
0.0125002 0.00110798 1e-05
0.0126245 0.00110822 1e-05
0.0127498 0.00110844 1e-05
0.0128752 0.00110866 1e-05
0.0130005 0.00110889 1e-05
0.0131258 0.0011091 1e-05
0.0132511 0.00110932 1e-05
0.0133774 0.00110951 1e-05
0.0135036 0.00110972 1e-05
0.0136299 0.00110991 1e-05
0.0137562 0.0011101 1e-05
0.0138825 0.00111029 1e-05
0.0140098 0.00111046 1e-05
0.014137 0.00111063 1e-05
0.0142643 0.00111079 1e-05
0.0143915 0.00111095 1e-05
0.0145188 0.0011111 1e-05
0.0146471 0.00111124 1e-05
0.0147753 0.00111138 1e-05
0.0149036 0.00111151 1e-05
0.0150318 0.00111163 1e-05
0.0151601 0.00111175 1e-05
0.0152893 0.00111185 1e-05
0.0154186 0.00111195 1e-05
0.0155478 0.00111205 1e-05
0.0156771 0.00111213 1e-05
0.0158063 0.00111221 1e-05
0.0159366 0.00111227 1e-05
0.0160668 0.00111233 1e-05
0.0161971 0.00111238 1e-05
0.0163274 0.00111243 1e-05
0.0164576 0.00111246 1e-05
0.0165889 0.00111248 1e-05
0.0167201 0.0011125 1e-05
0.0168514 0.0011125 1e-05
0.0169827 0.0011125 1e-05
0.0171139 0.00111248 1e-05
0.0172462 0.00111246 1e-05
0.0173785 0.00111243 1e-05
0.0175108 0.00111238 1e-05
0.0176431 0.00111233 1e-05
0.0177754 0.00111227 1e-05
0.0179087 0.0011122 1e-05
0.018042 0.00111211 1e-05
0.0181753 0.00111201 1e-05
0.0183087 0.00111191 1e-05
0.018442 0.00111179 1e-05
0.0185763 0.00111167 1e-05
0.0187107 0.00111153 1e-05
0.018845 0.00111137 1e-05
0.0189794 0.00111121 1e-05
0.0191137 0.00111103 1e-05
0.0192491 0.00111086 1e-05
0.0193845 0.00111066 1e-05
0.0195199 0.00111045 1e-05
0.0196553 0.00111023 1e-05
0.0197907 0.00110999 1e-05
0.0199272 0.00110976 1e-05
0.0200636 0.0011095 1e-05
0.0202001 0.00110923 1e-05
0.0203365 0.00110894 1e-05
0.020473 0.00110865 1e-05
0.0206105 0.00110836 1e-05
0.020748 0.00110804 1e-05
0.0208855 0.0011077 1e-05
0.021023 0.00110736 1e-05
0.0211606 0.001107 1e-05
0.0212991 0.00110665 1e-05
0.0214377 0.00110627 1e-05
0.0215763 0.00110586 1e-05
0.0217149 0.00110545 1e-05
0.0218535 0.00110503 1e-05
0.0219931 0.00110462 1e-05
0.0221328 0.00110417 1e-05
0.0222724 0.0011037 1e-05
0.0224121 0.00110321 1e-05
0.0225517 0.00110272 1e-05
0.0226925 0.00110225 1e-05
0.0228332 0.00110174 1e-05
0.022974 0.0011012 1e-05
0.0231147 0.00110064 1e-05
0.0232555 0.00110009 1e-05
0.0233973 0.00109955 1e-05
0.0235391 0.00109897 1e-05
0.023681 0.00109836 1e-05
0.0238228 0.00109773 1e-05
0.0239647 0.00109711 1e-05
0.0241076 0.0010965 1e-05
0.0242505 0.00109585 1e-05
0.0243935 0.00109517 1e-05
0.0245364 0.00109447 1e-05
0.0246794 0.00109378 1e-05
0.0248234 0.0010931 1e-05
0.0249675 0.00109238 1e-05
0.0251115 0.00109162 1e-05
0.0252556 0.00109085 1e-05
0.0253996 0.00109009 1e-05
0.0255448 0.00108934 1e-05
0.02569 0.00108855 1e-05
0.0258351 0.00108772 1e-05
0.0259803 0.00108688 1e-05
0.0261255 0.00108604 1e-05
0.0262718 0.00108522 1e-05
0.0264181 0.00108436 1e-05
0.0265644 0.00108345 1e-05
0.0267107 0.00108253 1e-05
0.026857 0.00108163 1e-05
0.0270044 0.00108073 1e-05
0.0271519 0.0010798 1e-05
0.0272993 0.00107882 1e-05
0.0274468 0.00107782 1e-05
0.0275942 0.00107684 1e-05
0.0277428 0.00107587 1e-05
0.0278914 0.00107486 1e-05
0.0280399 0.00107381 1e-05
0.0281885 0.00107274 1e-05
0.0283371 0.00107168 1e-05
0.0284869 0.00107064 1e-05
0.0286366 0.00106955 1e-05
0.0287863 0.00106842 1e-05
0.0289361 0.00106728 1e-05
0.0290858 0.00106615 1e-05
0.0292367 0.00106503 1e-05
0.0293876 0.00106387 1e-05
0.0295385 0.00106266 1e-05
0.0296894 0.00106144 1e-05
0.0298403 0.00106024 1e-05
0.0299924 0.00105904 1e-05
0.0301445 0.0010578 1e-05
0.0302966 0.00105652 1e-05
0.0304486 0.00105523 1e-05
0.0306007 0.00105395 1e-05
0.030754 0.00105267 1e-05
0.0309072 0.00105135 1e-05
0.0310605 0.00105 1e-05
0.0312138 0.00104862 1e-05
0.031367 0.00104727 1e-05
0.0315215 0.00104591 1e-05
0.0316759 0.00104452 1e-05
0.0318304 0.00104308 1e-05
0.0319848 0.00104163 1e-05
0.0321393 0.0010402 1e-05
0.0322949 0.00103876 1e-05
0.0324506 0.00103729 1e-05
0.0326062 0.00103578 1e-05
0.0327619 0.00103425 1e-05
0.0329175 0.00103274 1e-05
0.0330744 0.00103122 1e-05
0.0332313 0.00102967 1e-05
0.0333881 0.00102808 1e-05
0.033545 0.00102647 1e-05
0.0337019 0.00102488 1e-05
[...]
POINT_DATA 11945
 FIELD attributes 2
p 1 11945 float
-5.51347 -5.50581 -5.49777 -5.4897 -5.48159 -5.48207 -5.45496 -5.47098 -5.48699 -5.50298 -5.56404 -5.57005 -5.60874 -5.64744 -5.68613 -5.74757 -5.74666 -5.77348 -5.80033 -5.82719 -5.87349 -5.87705 -5.90016 -5.92328 -5.94641 -5.98425 -5.99316 -6.01457 -6.036 -6.05743 -6.08827 -6.09922 -6.11805 -6.1369 -6.15575 -6.18033 -6.19215 -6.20879 -6.22544 -6.2421 -6.26203 -6.2745 -6.28969 -6.30487 -6.32006 -6.33685 -6.34971 -6.36387 -6.37804 -6.3922 -6.40685 -6.41491 -6.42336 -6.43181 -6.44026 -6.44864 -6.45359 -6.45854 -6.46349 -6.46845 -6.47322 -6.48614 -6.49894 -6.51173 -6.52452 -6.53679 -6.54955 -6.56191 -6.57427 -6.58663 -6.59826 -6.61091 -6.623 -6.63509 -6.64718 -6.65842 -6.67111 -6.68316 -6.69521 -6.70726 -6.71843 -6.73163 -6.74425 -6.75686 -6.76947 -6.78127 -6.79643 -6.81144 -6.82645 -6.84145 -6.85575 -6.87262 -6.88889 -6.90516 -6.92143 -6.93598 -6.94842 -6.95843 -6.96844 -6.97845 -6.98607 -6.9936 -6.99774 -7.00188 -7.00601 -7.00771 -7.01373 -7.01628 -7.01882 -7.02137 -7.02116 -7.027 -7.02907 -7.03114 -7.03321 -7.03203 -7.03654 -7.0374 -7.03826 -7.03913 -7.03687 -7.04004 -7.04019 -7.04035 -7.04051 -7.0381 -7.04047 -7.04059 -7.0407 -7.04082 -7.03902 -7.04089 -7.04118 -7.04148 -7.04177 -7.04078 -7.04233 -7.04288 -7.04342 -7.04397 -7.04375 -7.04521 -7.0461 -7.04698 -7.04787 -7.04837 -7.04995 -7.05125 -7.05255 -7.05385 -7.055 -7.05687 -7.05862 -7.06038 -7.06214 -7.06389 -7.06415 -7.06441 -7.06467 -7.06493 -7.06519 -7.06716 -7.06914 -7.07111 -7.07308 -7.07507 -7.07779 -7.08051 -7.08323 -7.08595 -7.08872 -7.09188 -7.09509 -7.0983 -7.10151 -7.10486 -7.1084 -7.11209 -7.11578 -7.11948 -7.12347 -7.12729 -7.13144 -7.13559 -7.13974 -7.14443 -7.14842 -7.153 -7.15758 -7.16215 -7.16758 -7.17165 -7.17662 -7.18158 -7.18655 -7.19274 -7.1968 -7.20213 -7.20745 -7.21277 -7.21972 -7.22373 -7.22937 -7.23502 -7.24066 -7.24835 -7.25227 -7.2582 -7.26412 -7.27005 -7.27843 -7.28225 -7.28842 -7.29459 -7.30076 -7.30976 -7.31351 -7.31989 -7.32627 -7.33265 -7.34217 -7.34586 -7.35242 -7.35897 -7.36552 -7.37546 -7.37915 -7.38584 -7.39254 -7.39923 -7.40945 -7.41319 -7.41999 -7.42679 -7.43359 -7.44396 -7.44782 -7.45468 -7.46155 -7.46842 -7.47881 -7.48284 -7.48974 -7.49665 -7.50355 -7.51382 -7.51808 -7.52499 -7.5319 -7.53881 -7.54882 -7.55335 -7.56024 -7.56712 -7.574 -7.58365 -7.58849 -7.59531 -7.60214 -7.60897 -7.61814 -7.6233 -7.63004 -7.63678 -7.64356 -7.65215 -7.65768 -7.66424 -7.67086 -7.67761 -7.68551 -7.69136 -7.69775 -7.70422 -7.71083 -7.71807 -7.72414 -7.73038 -7.73668 -7.74306 -7.7497 -7.75588 -7.762 -7.76809 -7.77418 -7.78026 -7.78646 -7.79246 -7.79834 -7.80409 -7.80968 -7.81581 -7.82169 -7.82734 -7.83273 -7.83787 -7.84387 -7.84961 -7.855 -7.86001 -7.86477 -7.87055 -7.87612 -7.88124 -7.88586 -7.89027 -7.89576 -7.9011 -7.90593 -7.91017 -7.91426 -7.91941 -7.92448 -7.92901 -7.93288 -7.93669 -7.94145 -7.94621 -7.95041 -7.95396 -7.95751 -7.96186 -7.96621 -7.97008 -7.9734 -7.97671 -7.98064 -7.98456 -7.9881 -7.99121 -7.99431 -7.99781 -8.0013 -8.00452 -8.00744 -8.01035 -8.01343 -8.0165 -8.01942 -8.02217 -8.02492 -8.02759 -8.03027 -8.0329 -8.0355 -8.03811 -8.04041 -8.04272 -8.04509 -8.04756 -8.05003 -8.052 -8.05397 -8.05611 -8.05847 -8.06084 -8.06251 -8.06418 -8.06613 -8.06841 -8.0707 -8.07212 -8.0736 -8.07542 -8.0776 -8.07985 -8.08109 -8.08246 -8.0842 -8.0863 -8.08856 -8.08969 -8.09106 -8.09278 -8.09483 -8.09716 -8.09825 -8.09972 -8.1015 -8.10353 -8.10599 -8.10712 -8.1088 -8.1107 -8.11277 -8.11542 -8.11668 -8.11867 -8.12078 -8.12294 -8.12585 -8.12733 -8.12973 -8.13213 -8.13453 -8.13769 -8.13963 -8.1424 -8.14517 -8.14794 -8.15136 -8.15387 -8.1571 -8.16033 -8.16356 -8.16731 -8.17052 -8.1743 -8.17808 -8.18187 -8.18601 -8.19003 -8.19446 -8.19889 -8.20332 -8.20795 -8.2129 -8.21807 -8.22325 -8.22842 -8.2336 -8.23379 -8.23399 -8.23418 -8.23438 -8.23458 -8.24038 -8.24618 -8.25198 -8.25778 -8.26378 -8.27053 -8.27745 -8.28438 -8.29131 -8.29865 -8.30622 -8.31416 -8.32211 -8.33005 -8.33865 -8.34712 -8.35616 -8.36521 -8.37426 -8.3842 -8.39365 -8.40387 -8.4141 -8.42433 -8.43569 -8.4462 -8.45766 -8.46914 -8.48077 -8.49347 -8.50531 -8.51788 -8.53066 -8.54384 -8.55782 -8.57105 -8.58479 -8.59893 -8.61368 -8.62899 -8.64366 -8.65862 -8.67414 -8.69048 -8.70712 -8.72325 -8.73949 -8.75641 -8.77431 -8.79227 -8.80989 -8.82751 -8.84588 -8.86513 -8.88439 -8.90347 -8.92256 -8.94232 -8.9628 -8.98328 -9.0038 -9.02432 -9.0454 -9.06701 -9.08863 -9.11049 -9.13237 -9.15467 -9.17729 -9.19992 -9.22303 -9.24616 -9.26955 -9.29302 -9.31649 -9.34072 -9.36495 -9.38921 -9.41338 -9.4375 -9.46265 -9.48769 -9.5126 -9.53737 -9.5619 -9.58776 -9.61321 -9.63854 -9.66378 -9.68845 -9.71474 -9.74017 -9.7656 -9.79104 -9.81569 -9.84179 -9.86699 -9.8922 -9.91743 -9.94201 -9.96732 -9.99192 -10.0165 -10.0412 -10.0656 -10.0758 -10.0857 -10.0956 -10.1056 -10.1148 -10.1287 -10.1426 -10.1565 -10.1704 -10.184 -10.2067 -10.229 -10.2513 -10.2736 -10.2951 -10.3167 -10.3371 -10.3575 -10.378 -10.3967 -10.4168 -10.4351 -10.4532 -10.4704 -10.4862 -10.5038 -10.5205 -10.5357 -10.5487 -10.5613 -10.5758 -10.5903 -10.6018 -10.6105 -10.6193 -10.6302 -10.6411 -10.6489 -10.6532 -10.6576 -10.6643 -10.6697 -10.6725 -10.6741 -10.6735 -10.6755 -10.6734 -10.6711 -10.6688 -10.6644 -10.6614 -10.6564 -10.6515 -10.6465 -10.6422 -10.6392 -10.6363 -10.6333 -10.6304 -10.6264 -10.6141 -10.6004 -10.5868 -10.5733 -10.5557 -10.5393 -10.52 -10.4996 -10.4759 -10.4507 -10.4271 -10.4036 -10.3751 -10.3419 -10.3087 -10.2772 -10.2443 -10.2072 -10.1685 -10.1267 -10.087 -10.0419 -9.99686 -9.95192 -9.91464 -9.91216 -9.90968 -9.9072 -9.90472 -9.90185 -9.84875 -9.79528 -9.74193 -9.68867 -9.62743 -9.57013 -9.51095 -9.44767 -9.37611 -9.30443 -9.23683 -9.16869 -9.09233 -9.01317 -8.93057 -8.87508 -8.81387 -8.75178 -8.68975 -8.63487 -8.60887 -8.58288 -8.55692 -8.53047 -8.50146 -8.40983 -8.31406 -8.21849 -8.11741 -8.0114 -7.91001 -7.8088 -7.69913 -7.58232 -7.46418 -7.38908 -7.30919 -7.22695 -7.14479 -7.07087 -7.02878 -6.98673 -6.9447 -6.9013 -6.85521 -6.72883 -6.59709 -6.46534 -6.32383 -6.17985 -6.04088 -5.89862 -5.74831 -5.59821 -5.44436 -5.42433 -5.40358 -5.38199 -5.36041 -5.33924 -5.20206 -5.06512 -4.92843 -4.78648 -4.63831 -4.47296 -4.30792 -4.13236 -3.95377 -3.77088 -3.71827 -3.66447 -3.60837 -3.5523 -3.49852 -3.36866 -3.239 -3.10954 -2.97458 -2.83543 -2.64384 -2.45263 -2.25154 -2.04785 -1.83931 -1.7943 -1.74877 -1.70129 -1.65384 -1.6078 -1.44495 -1.28238 -1.12011 -0.951075 -0.77795 -0.563252 -0.347078 -0.122558 0.101514 0.296269 0.304255 0.31224 0.320225 0.328553 0.336945 0.567527 0.79812 1.02812 1.26646 1.50988 1.64259 1.77524 1.91154 2.04765 2.17315 2.28182 2.39034 2.49871 2.60852 2.71966 2.96529 3.21014 3.45276 3.69437 3.93846 3.93936 3.94026 3.94116 3.94205 3.94293 4.18474 4.4256 4.66548 4.89232 5.12606 5.24288 5.3594 5.46549 5.57087 5.66889 5.78126 5.89335 6.00415 6.1055 6.20877 6.37709 6.54466 6.69522 6.84245 6.97751 7.0136 7.04966 7.08503 7.11785 7.15082 7.32293 7.49451 7.65619 7.8125 7.97042 7.97707 7.98372 7.99004 7.99623 8.00241 8.14987 8.29735 8.44334 8.5853 8.72721 8.76291 8.79863 8.83353 8.86817 8.903 9.01407 9.12529 9.23594 9.34467 9.45239 9.51859 9.58486 9.64964 9.714 9.77994 9.85527 9.93069 10.0056 10.0786 10.1509 10.2515 10.3523 10.4498 10.5466 10.6487 10.6826 10.7166 10.7503 10.7827 10.8149 10.9434 11.0722 11.1966 11.3186 11.4369 11.4492 11.4616 11.4732 11.4848 11.4965 11.6026 11.709 11.815 11.9151 12.0128 12.0732 12.1337 12.1903 12.2469 12.3076 12.3545 12.4015 12.4485 12.4926 12.5361 12.6348 12.7337 12.8277 12.9196 13.0081 13.0261 13.0439 13.0606 13.0774 13.0947 13.1641 13.2336 13.3032 13.369 13.4326 13.5114 13.5895 13.6631 13.7369 13.808 13.8166 13.825 13.833 13.8411 13.8493 13.9093 13.9692 14.0291 14.0868 14.1418 14.203 14.2642 14.322 14.3784 14.4332 14.461 14.4877 14.5138 14.5398 14.5691 14.5933 14.6174 14.6416 14.6652 14.6878 14.7341 14.7796 14.8248 14.8676 14.9094 14.9494 14.9893 15.0269 15.0638 15.1 15.1303 15.1588 15.1873 15.2157 15.2508 15.2534 15.256 15.2585 15.2611 15.2636 15.2924 15.3212 15.3499 15.3786 15.4055 15.4306 15.4554 15.48 15.5035 15.5267 15.5481 15.5695 15.5901 15.6101 15.63 15.6484 15.6664 15.6838 15.7011 15.7182 15.734 15.7489 15.7639 15.7788 15.7936 15.8032 15.8125 15.8218 15.8311 15.842 15.8453 15.8486 15.8519 15.8551 15.8583 15.8696 15.8809 15.8922 15.9034 15.9144 15.9239 15.9337 15.9435 15.9532 15.9626 15.9708 15.9792 15.9877 15.996 16.0042 16.0113 16.0185 16.0259 16.0331 16.0403 16.0465 16.0528 16.0592 16.0655 16.0718 16.0773 16.0828 16.0883 16.0939 16.0995 16.1044 16.1093 16.1141 16.1191 16.1241 16.1284 16.1328 16.137 16.1415 16.146 16.1499 16.1538 16.1577 16.1617 16.1658 16.1693 16.1729 16.1764 16.18 16.1837 16.187 16.1902 16.1935 16.1967 16.2002 16.2032 16.2062 16.2092 16.2122 16.2153 16.2181 16.2209 16.2237 16.2265 16.2294 16.2321 16.2347 16.2373 16.2399 16.2426 16.2451 16.2476 16.2501 16.2526 16.2551 16.2575 16.2598 16.2622 16.2645 16.2669 16.2689 16.2709 16.2729 16.2749 16.2772 16.2774 16.2776 16.2777 16.2779 16.2781 16.2803 16.2824 16.2846 16.2867 16.2889 16.2909 16.293 16.295 16.2971 16.2992 16.3011 16.3031 16.3051 16.307 16.309 16.3109 16.3128 16.3147 16.3166 16.3185 16.3203 16.3222 16.324 16.3258 16.3277 16.3294 16.3312 16.333 16.3348 16.3366 16.3382 16.34 16.3417 16.3435 16.3453 16.3469 16.3486 16.3503 16.3521 16.3539 16.3555 16.3572 16.359 16.3607 16.3625 16.3642 16.366 16.3678 16.3696 16.3715 16.3732 16.3752 16.3771 16.379 16.3811 16.3831 16.3852 16.3874 16.3896 16.3919 16.3943 16.3968 16.3993 16.402 16.4048 16.4077 16.4108 16.4139 16.4172 16.4208 16.4246 16.4286 16.4326 16.4369 16.4417 16.4468 16.4521 16.4574 16.4629 16.4692 16.4761 16.4834 16.4909 16.499 16.5088 16.5196 16.527 16.5336 16.54 16.5461 16.5526 16.5659 16.5795 16.5931 16.6189 16.6448 16.6474 16.6496 16.6445 16.6199 16.5909 16.5607 16.529 16.4919 16.4524 16.4102 16.368 16.3296 16.2916 16.2535 16.2136 16.1737 16.134 16.0943 16.0545 16.0128 15.971 15.9282 15.8846 15.8409 15.7949 15.749 15.7021 15.6545 15.6068 15.5568 15.5066 15.4556 15.404 15.3521 15.2978 15.2429 15.1874 15.1313 15.0746 15.0152 14.9549 14.894 14.8328 14.7706 14.7054 14.6388 14.5719 14.5049 14.4363 14.3644 14.2907 14.2169 14.1432 14.0678 13.988 13.9065 13.825 13.7434 13.6606 13.5717 13.4815 13.3912 13.301 13.2097 13.1106 13.0105 12.9104 12.8103 12.7097 12.625 12.5399 12.4547 12.3695 12.2674 12.2448 12.2222 12.1996 12.177 12.1542 12.0311 11.9077 11.7843 11.6609 11.5365 11.4002 11.2627 11.1251 10.9875 10.848 10.6969 10.5435 10.3901 10.2367 10.0803 9.91246 9.74038 9.56828 9.39616 9.21898 9.0315 8.83978 8.64804 8.45629 8.25977 8.05288 7.83303 7.61315 7.39325 7.15937 6.9165 6.6784 6.4403 6.20224 5.96904 5.72802 5.42802 5.12389 4.81164 4.44442 4.06459 3.78271 3.52179 3.28548 3.14134 2.99194 2.54638 1.956 1.1035 0