/*--------------------------------*- C++ -*----------------------------------*\
| =========                 |                                                 |
| \\      /  F ield         | OpenFOAM: The Open Source CFD Toolbox           |
|  \\    /   O peration     | Version:  2.2.x                                 |
|   \\  /    A nd           | Web:      www.OpenFOAM.org                      |
|    \\/     M anipulation  |                                                 |
\*---------------------------------------------------------------------------*/
FoamFile
{
    version     2.0;
    format      ascii;
    class       volScalarField;
    location    "450";
    object      epsilon;
}
// * * * * * * * * * * * * * * * * * * * * * * * * * * * * * * * * * * * * * //

dimensions      [0 2 -3 0 0 0 0];

internalField   nonuniform List<scalar> 
12225
(
1739.11
3020.52
4030.09
4714.56
5132
5357.83
5455.69
5472.25
5439.29
5377.64
5300.53
5216.28
5129.99
5044.74
4962.32
4883.65
4808.04
4742.15
187.431
345.306
471.685
572.283
644.863
692.96
722.772
740.046
749.201
753.376
754.687
754.515
753.733
752.881
752.329
752.599
755.934
763.149
41.8452
72.5082
98.5878
120.686
138.673
152.647
163.108
170.696
176.033
179.674
182.076
183.603
184.534
185.083
185.412
185.679
186.065
186.405
20.3598
27.9828
35.4706
42.3236
48.3614
53.5191
57.8257
61.3586
64.2133
66.4891
68.2807
69.6741
70.7443
71.5557
72.1631
72.6139
72.9433
73.1305
16.0562
18.2137
20.6755
23.151
25.4986
27.6452
29.562
31.246
32.7074
33.9631
35.0333
35.9388
36.6998
37.3352
37.8621
38.2956
38.6466
38.9123
15.0131
15.5456
16.313
17.1964
18.1157
19.0195
19.8772
20.6729
21.3994
22.055
22.6412
23.1616
23.6207
24.0235
24.375
24.6799
24.9417
25.1592
14.7583
14.7814
14.9212
15.1496
15.4363
15.7554
16.0873
16.418
16.7384
17.0425
17.3271
17.5903
17.8316
18.0511
18.2495
18.4276
18.5862
18.7237
14.7063
14.5999
14.5497
14.5524
14.5991
14.6792
14.7824
14.9
15.0252
15.1527
15.2789
15.401
15.5174
15.6268
15.7285
15.8222
15.9075
15.9826
14.6923
14.5448
14.4247
14.3339
14.2712
14.2336
14.2168
14.2167
14.2291
14.2508
14.2787
14.3106
14.3447
14.3794
14.4139
14.4471
14.4786
14.5067
14.6883
14.5275
14.3816
14.2517
14.1383
14.041
13.9587
13.8899
13.8329
13.786
13.7476
13.7161
13.6904
13.6692
13.6516
13.6368
13.6241
13.6126
14.6872
14.5228
14.3691
14.2261
14.0939
13.9722
13.8609
13.7593
13.667
13.5831
13.507
13.4378
13.3749
13.3176
13.2652
13.2172
13.1731
13.1325
14.6868
14.5216
14.3659
14.2194
14.0816
13.9522
13.8308
13.717
13.6106
13.511
13.4179
13.3309
13.2495
13.1734
13.1023
13.0356
12.9731
12.915
14.6866
14.5211
14.365
14.2176
14.0785
13.9471
13.823
13.7057
13.595
13.4903
13.3914
13.2979
13.2096
13.126
13.0471
12.9723
12.9017
12.8355
14.6865
14.5209
14.3646
14.217
14.0775
13.9456
13.8209
13.7028
13.591
13.485
13.3846
13.2893
13.1989
13.1132
13.0318
12.9544
12.881
12.812
14.6864
14.5207
14.3643
14.2166
14.077
13.945
13.82
13.7017
13.5896
13.4833
13.3825
13.2868
13.1959
13.1096
13.0275
12.9495
12.8754
12.8056
14.6863
14.5206
14.3641
14.2163
14.0766
13.9445
13.8194
13.701
13.5888
13.4823
13.3814
13.2855
13.1945
13.108
13.0257
12.9475
12.8732
12.8032
14.6863
14.5205
14.364
14.2161
14.0764
13.9442
13.8191
13.7005
13.5882
13.4817
13.3806
13.2847
13.1936
13.1069
13.0246
12.9463
12.8718
12.8017
14.6863
14.5205
14.364
14.2161
14.0763
13.944
13.8189
13.7003
13.5879
13.4814
13.3802
13.2842
13.193
13.1064
13.024
12.9456
12.8711
12.8009
14.6863
14.5205
14.364
14.2161
14.0763
13.9441
13.8189
13.7003
13.5879
13.4814
13.3802
13.2842
13.193
13.1063
13.0239
12.9455
12.871
12.8008
14.6863
14.5206
14.3641
14.2162
14.0765
13.9443
13.8191
13.7006
13.5883
13.4818
13.3807
13.2848
13.1937
13.1072
13.025
12.9468
12.8725
12.8026
14.6864
14.5207
14.3642
14.2165
14.0769
13.9449
13.82
13.7019
13.59
13.4841
13.3838
13.2888
13.1987
13.1133
13.0323
12.9555
12.8826
12.8142
14.6865
14.5209
14.3648
14.2177
14.0791
13.9486
13.8258
13.7104
13.6018
13.4998
13.404
13.314
13.2294
13.1499
13.0752
13.0049
12.9388
12.8773
14.6868
14.5224
14.369
14.2265
14.095
13.9742
13.8636
13.7628
13.6711
13.5877
13.512
13.4432
13.3806
13.3236
13.2717
13.2241
13.1807
13.1413
14.6896
14.5346
14.3997
14.286
14.1933
14.12
14.0639
14.0228
13.994
13.9755
13.9651
13.9612
13.9623
13.9672
13.9748
13.9844
13.9953
14.0073
14.7121
14.6198
14.5883
14.6114
14.6787
14.7792
14.9028
15.0412
15.1877
15.3376
15.487
15.6333
15.7748
15.91
16.0384
16.1594
16.2728
16.3787
14.8714
15.1221
15.5437
16.0693
16.6496
17.2494
17.8456
18.4237
18.9749
19.4942
19.9791
20.4287
20.8433
21.224
21.5722
21.8897
22.1784
22.4399
15.8759
17.7061
19.7888
21.8993
23.9454
25.8801
27.681
29.3393
30.8537
32.2271
33.4651
34.5754
35.5665
36.4477
37.2282
37.9169
38.5221
39.0519
22.1652
31.1007
39.3168
46.8956
53.8949
60.2855
66.0557
71.212
75.7728
79.7674
83.2349
86.2205
88.7723
90.9385
92.765
94.2929
95.5555
96.5721
68.0191
114.901
154.786
191.795
226.046
256.878
283.98
307.33
327.086
343.538
357.05
368.013
376.808
383.788
389.264
393.493
396.66
398.771
723.144
1065.45
1375.75
1655.2
1913.03
2142.28
2339.68
2504.84
2639.46
2746.38
2828.99
2890.79
2935.12
2965.03
2983.18
2991.89
2993.11
2988.33
1.61463
1.62917
2.34408
3.00074
3.74615
4.54802
5.5161
6.68259
8.0062
9.4957
11.1366
12.9141
14.817
16.8364
18.965
21.1973
23.5286
25.9557
28.4776
31.0954
33.8139
36.6429
39.5991
42.6617
45.8146
49.0558
52.3845
55.8006
59.3042
62.8959
66.5766
70.3476
74.2107
78.1681
82.2223
86.3766
90.6342
94.9991
99.4754
104.068
108.78
113.619
118.589
123.696
128.945
134.343
139.895
145.608
151.487
157.54
163.773
170.19
176.8
183.607
190.616
197.835
205.268
212.919
220.795
228.898
237.234
245.805
254.615
263.665
272.957
282.491
292.268
302.287
312.546
323.041
333.767
344.718
355.887
367.264
378.839
390.597
402.525
414.606
426.821
439.15
451.571
464.062
476.602
489.171
501.756
514.35
526.965
539.642
552.463
565.114
577.498
589.57
601.28
612.578
623.411
633.726
643.47
652.59
661.037
668.762
675.721
681.871
687.174
691.6
695.121
697.719
699.384
700.111
699.904
698.777
696.753
693.862
690.141
685.634
680.393
674.476
667.943
660.863
653.306
645.347
637.055
628.501
619.755
610.887
601.966
593.05
584.196
575.453
566.867
558.478
550.32
542.423
534.825
527.589
520.857
514.668
508.795
503.211
497.897
492.838
488.016
483.408
478.988
474.733
470.62
466.629
462.736
459.053
455.481
451.92
448.34
444.711
440.999
437.181
433.237
429.139
424.868
420.412
415.762
410.917
405.872
400.628
395.174
389.544
383.749
377.786
371.698
365.502
359.204
352.863
346.475
340.111
333.721
327.246
321.242
315.353
311.327
312.09
312.995
306.507
5.42335
3.00086
2.89023
3.21636
3.71969
4.35207
5.10321
5.96432
6.91878
7.95107
9.04747
10.1975
11.3937
12.6309
13.9057
15.2155
16.559
17.9355
19.345
20.7881
22.2658
23.7789
25.3279
26.911
28.527
30.176
31.8586
33.5755
35.3276
37.1158
38.9413
40.8052
42.7089
44.6538
46.6415
48.6735
50.7517
52.8778
55.0536
57.2813
59.5626
61.8997
64.2946
66.7494
69.2663
71.8472
74.4943
77.2096
79.9952
82.853
85.7848
88.7924
91.8774
95.0414
98.2858
101.612
105.021
108.513
112.091
115.753
119.501
123.334
127.253
131.257
135.345
139.515
143.768
148.101
152.512
156.998
161.557
166.184
170.877
175.631
180.441
185.302
190.209
195.156
200.135
205.142
210.17
215.212
220.263
225.319
230.378
235.439
240.505
245.584
250.699
255.768
260.735
265.576
270.273
274.808
279.16
283.311
287.241
290.932
294.363
297.519
300.382
302.937
305.169
307.066
308.62
309.822
310.667
311.154
311.284
311.062
310.493
309.59
308.364
306.832
305.013
302.926
300.595
298.044
295.299
292.386
289.332
286.161
282.901
279.578
276.216
272.837
269.463
266.113
262.806
259.558
256.383
253.297
250.316
247.461
244.76
242.254
239.85
237.529
235.286
233.115
231.012
228.973
226.991
225.061
223.176
221.334
219.531
217.797
216.146
214.513
212.884
211.249
209.599
207.927
206.228
204.494
202.72
200.903
199.039
197.128
195.169
193.165
191.115
189.023
186.898
184.739
182.558
180.359
178.149
175.941
173.731
171.54
169.353
167.126
165.036
163.197
161.737
161.623
161.937
163.972
10.0784
5.00054
4.38741
4.47197
4.83117
5.36223
6.02666
6.80115
7.66518
8.60011
9.59045
10.6245
11.694
12.7936
13.9199
15.0709
16.2456
17.4437
18.6651
19.9102
21.1795
22.4734
23.7921
25.1358
26.5049
27.9
29.322
30.7716
32.2499
33.7577
35.2961
36.8661
38.4689
40.1055
41.7772
43.4853
45.2309
47.0155
48.8404
50.7069
52.6164
54.5704
56.5703
58.6175
60.7134
62.8594
65.0568
67.3071
69.6115
71.9713
74.3875
76.8614
79.3938
81.9857
84.6379
87.3511
90.1258
92.9625
95.8615
98.8231
101.847
104.934
108.082
111.292
114.563
117.895
121.285
124.733
128.238
131.798
135.41
139.074
142.787
146.546
150.349
154.192
158.073
161.989
165.935
169.909
173.906
177.924
181.958
186.006
190.064
194.129
198.2
202.274
206.343
210.367
214.322
218.191
221.961
225.618
229.147
232.533
235.761
238.818
241.688
244.357
246.812
249.041
251.03
252.772
254.256
255.476
256.426
257.105
257.51
257.645
257.513
257.12
256.476
255.59
254.477
253.151
251.628
249.927
248.066
246.064
243.941
241.718
239.413
237.046
234.636
232.199
229.751
227.309
224.886
222.495
220.147
217.853
215.624
213.471
211.399
209.414
207.499
205.641
203.834
202.074
200.361
198.689
197.057
195.462
193.901
192.372
190.881
189.422
187.986
186.557
185.125
183.684
182.228
180.752
179.251
177.722
176.16
174.563
172.927
171.252
169.538
167.785
165.993
164.163
162.298
160.402
158.476
156.524
154.55
152.555
150.545
148.5
146.461
144.423
142.506
140.814
139.457
138.803
138.696
140.203
14.7882
7.08496
5.90589
5.7691
6.00485
6.44937
7.04182
7.74987
8.55045
9.4247
10.3571
11.3355
12.351
13.3973
14.4703
15.5674
16.6874
17.8295
18.9935
20.1797
21.3884
22.6199
23.8749
25.1537
26.4571
27.7858
29.1407
30.5225
31.9322
33.3707
34.8388
36.3375
37.8679
39.4308
41.0273
42.6584
44.3253
46.0291
47.7709
49.5518
51.373
53.2358
55.1413
57.0907
59.0852
61.1261
63.2144
65.3514
67.5381
69.7757
72.0651
74.4073
76.8031
79.2534
81.7589
84.3202
86.9379
89.6123
92.3439
95.1329
97.9793
100.883
103.844
106.863
109.938
113.07
116.257
119.499
122.796
126.146
129.549
133.003
136.507
140.059
143.659
147.303
150.992
154.721
158.49
162.296
166.135
170.006
173.905
177.829
181.774
185.736
189.71
193.691
197.662
201.6
205.487
209.311
213.058
216.715
220.268
223.703
227.006
230.164
233.161
235.983
238.617
241.049
243.267
245.261
247.019
248.534
249.798
250.808
251.561
252.055
252.294
252.281
252.022
251.527
250.806
249.872
248.739
247.423
245.94
244.31
242.549
240.676
238.71
236.668
234.568
232.427
230.259
228.08
225.902
223.738
221.598
219.491
217.426
215.41
213.444
211.53
209.664
207.843
206.064
204.324
202.62
200.949
199.31
197.701
196.117
194.554
193.011
191.48
189.955
188.425
186.883
185.323
183.739
182.127
180.481
178.8
177.078
175.313
173.499
171.635
169.721
167.759
165.744
163.676
161.557
159.39
157.173
154.904
152.598
150.223
147.829
145.407
143.003
140.632
138.382
136.345
134.625
133.43
132.769
133.288
20.5219
9.21501
7.37699
6.99883
7.10758
7.46706
7.9916
8.63935
9.38418
10.2068
11.0922
12.0282
13.0058
14.0182
15.0607
16.1302
17.2248
18.3434
19.4855
20.6511
21.8404
23.0538
24.2918
25.5549
26.8439
28.1595
29.5025
30.8736
32.2738
33.7037
35.1643
36.6564
38.1809
39.7388
41.3308
42.9581
44.6215
46.3221
48.061
49.8391
51.6577
53.5178
55.4207
57.3673
59.3589
61.3967
63.4819
65.6155
67.7988
70.0328
72.3186
74.6571
77.0495
79.4965
81.999
84.5578
87.1736
89.8469
92.5783
95.3683
98.2171
101.125
104.092
107.119
110.205
113.351
116.556
119.82
123.143
126.524
129.964
133.461
137.016
140.627
144.295
148.017
151.793
155.622
159.503
163.433
167.411
171.433
175.498
179.601
183.739
187.906
192.098
196.306
200.51
204.694
208.844
212.945
216.986
220.953
224.832
228.609
232.268
235.796
239.176
242.393
245.432
248.278
250.916
253.335
255.521
257.464
259.155
260.586
261.754
262.655
263.288
263.657
263.765
263.62
263.23
262.607
261.765
260.717
259.482
258.076
256.517
254.823
253.014
251.108
249.122
247.074
244.98
242.854
240.711
238.564
236.421
234.295
232.19
230.115
228.072
226.062
224.085
222.14
220.228
218.349
216.499
214.678
212.88
211.1
209.334
207.579
205.831
204.081
202.324
200.551
198.756
196.932
195.072
193.17
191.223
189.227
187.178
185.07
182.899
180.66
178.354
175.981
173.538
171.02
168.423
165.762
163.022
160.189
157.317
154.372
151.401
148.409
145.441
142.527
139.74
137.165
134.895
133.084
131.761
131.317
26.3983
11.2811
8.74546
8.11464
8.09373
8.36938
8.82946
9.42168
10.116
10.8923
11.7355
12.6339
13.5785
14.5625
15.5809
16.6303
17.7083
18.8134
19.9451
21.1029
22.2869
23.4975
24.735
26
27.2932
28.6152
29.9668
31.3487
32.7617
34.2066
35.6842
37.1952
38.7406
40.3211
41.9377
43.5912
45.2827
47.0132
48.7836
50.595
52.4485
54.3453
56.2865
58.2734
60.3071
62.389
64.5203
66.7022
68.936
71.2229
73.5643
75.9613
78.415
80.9265
83.497
86.1273
88.8186
91.5715
94.387
97.2657
100.208
103.215
106.287
109.425
112.628
115.898
119.234
122.637
126.106
129.644
133.248
136.921
140.661
144.469
148.344
152.288
156.298
160.375
164.518
168.726
172.996
177.327
181.716
186.16
190.653
195.192
199.771
204.374
208.984
213.587
218.17
222.719
227.221
231.662
236.027
240.302
244.47
248.515
252.42
256.168
259.742
263.124
266.298
269.249
271.961
274.421
276.618
278.542
280.185
281.542
282.61
283.388
283.88
284.09
284.026
283.699
283.121
282.307
281.273
280.037
278.616
277.031
275.302
273.446
271.485
269.435
267.315
265.141
262.928
260.689
258.436
256.179
253.927
251.687
249.462
247.257
245.073
242.911
240.771
238.653
236.557
234.478
232.412
230.356
228.305
226.254
224.197
222.128
220.038
217.921
215.769
213.575
211.331
209.031
206.67
204.244
201.749
199.179
196.526
193.786
190.953
188.036
185.028
181.918
178.69
175.39
171.993
168.5
164.943
161.318
157.661
153.992
150.353
146.783
143.347
140.124
137.198
134.696
132.636
131.273
31.9759
13.1849
9.96991
9.09104
8.94298
9.13764
9.53693
10.078
10.7265
11.4607
12.2654
13.129
14.043
15.0005
15.9967
17.0278
18.0913
19.1858
20.3101
21.4638
22.6469
23.8596
25.1022
26.3752
27.6792
29.0149
30.383
31.7842
33.2193
34.689
36.1942
37.7355
39.3139
40.9303
42.5854
44.2803
46.0158
47.7932
49.6133
51.4773
53.3865
55.3419
57.345
59.397
61.4992
63.6532
65.8603
68.1219
70.4396
72.8148
75.2489
77.7435
80.3
82.9197
85.604
88.3542
91.1716
94.0573
97.0124
100.038
103.135
106.305
109.548
112.865
116.256
119.724
123.267
126.888
130.586
134.363
138.218
142.154
146.169
150.266
154.444
158.704
163.047
167.471
171.977
176.564
181.23
185.975
190.794
195.684
200.642
205.661
210.736
215.844
220.97
226.102
231.226
236.329
241.397
246.414
251.366
256.237
261.008
265.663
270.182
274.547
278.738
282.736
286.522
290.076
293.381
296.422
299.183
301.651
303.816
305.67
307.207
308.423
309.321
309.901
310.172
310.143
309.824
309.231
308.38
307.288
305.975
304.462
302.769
300.917
298.927
296.819
294.613
292.326
289.976
287.576
285.141
282.682
280.209
277.73
275.25
272.776
270.309
267.853
265.408
262.974
260.551
258.134
255.721
253.307
250.888
248.457
246.008
243.534
241.027
238.479
235.884
233.232
230.515
227.725
224.855
221.905
218.867
215.736
212.502
209.158
205.687
202.121
198.442
194.643
190.717
186.69
182.557
178.325
174.018
169.648
165.247
160.842
156.474
152.187
148.039
144.105
140.461
137.214
134.371
132.117
37.0247
14.8778
11.0325
9.91975
9.6505
9.76795
10.1099
10.6035
11.2098
11.9054
12.6745
13.5057
14.3905
15.3225
16.2967
17.3095
18.3586
19.4421
20.559
21.7087
22.8912
24.1066
25.3551
26.6374
27.9538
29.3053
30.6923
32.1158
33.5764
35.075
36.6124
38.1894
39.807
41.4659
43.1673
44.912
46.7012
48.5359
50.4173
52.3467
54.3253
56.3545
58.4358
60.5707
62.7607
65.0074
67.3125
69.6777
72.1047
74.5954
77.1514
79.7745
82.4666
85.2292
88.0642
90.9731
93.9576
97.0192
100.159
103.379
106.681
110.065
113.533
117.085
120.724
124.449
128.263
132.166
136.159
140.243
144.42
148.689
153.054
157.513
162.069
166.723
171.474
176.324
181.273
186.319
191.463
196.701
202.032
207.452
212.956
218.538
224.188
229.878
235.598
241.333
247.071
252.798
258.499
264.158
269.76
275.286
280.719
286.039
291.226
296.259
301.116
305.776
310.217
314.416
318.354
322.012
325.37
328.414
331.13
333.506
335.533
337.207
338.524
339.485
340.097
340.366
340.305
339.926
339.245
338.282
337.056
335.589
333.904
332.023
329.968
327.762
325.427
322.981
320.444
317.832
315.162
312.445
309.695
306.919
304.126
301.322
298.511
295.697
292.882
290.066
287.249
284.426
281.596
278.754
275.894
273.01
270.095
267.141
264.142
261.088
257.971
254.782
251.512
248.15
244.685
241.127
237.463
233.685
229.784
225.754
221.587
217.295
212.873
208.317
203.629
198.824
193.908
188.894
183.804
178.659
173.488
168.322
163.202
158.172
153.286
148.614
144.223
140.208
136.563
133.437
41.4091
16.3331
11.9266
10.6011
10.2194
10.2643
10.5523
11.0013
11.5683
12.2279
12.9637
13.7641
14.6209
15.5277
16.4798
17.474
18.5076
19.579
20.6872
21.8318
23.0124
24.2293
25.4828
26.7735
28.1019
29.4688
30.875
32.3213
33.8085
35.3376
36.9094
38.525
40.1852
41.8912
43.6439
45.4446
47.2945
49.1947
51.1467
53.1518
55.2116
57.3276
59.5014
61.7349
64.0298
66.3881
68.8116
71.3024
73.8626
76.4942
79.1995
81.9804
84.8392
87.778
90.7988
93.9037
97.0947
100.374
103.742
107.203
110.756
114.405
118.149
121.992
125.933
129.975
134.119
138.365
142.716
147.172
151.735
156.407
161.188
166.079
171.083
176.2
181.431
186.778
192.239
197.816
203.508
209.311
215.224
221.243
227.362
233.577
239.857
246.187
252.554
258.944
265.344
271.739
278.113
284.451
290.735
296.947
303.067
309.075
314.95
320.669
326.209
331.546
336.655
341.511
346.091
350.373
354.337
357.962
361.234
364.136
366.658
368.789
370.525
371.865
372.813
373.375
373.561
373.385
372.861
372.01
370.852
369.41
367.708
365.77
363.62
361.284
358.784
356.142
353.379
350.515
347.565
344.546
341.471
338.351
335.195
332.01
328.801
325.576
322.335
319.079
315.808
312.52
309.21
305.876
302.51
299.107
295.659
292.159
288.597
284.966
281.256
277.457
273.561
269.556
265.434
261.195
256.832
252.335
247.698
242.917
237.988
232.916
227.7
222.345
216.855
211.243
205.523
199.711
193.829
187.902
181.96
176.035
170.166
164.396
158.776
153.368
148.234
143.454
139.015
135.046
45.0456
17.536
12.6514
11.1399
10.657
10.635
10.8725
11.2795
11.8093
12.4349
13.1391
13.9101
14.7396
15.6217
16.5517
17.5265
18.5438
19.602
20.7003
21.838
23.0153
24.2323
25.4894
26.7873
28.1267
29.5085
30.9335
32.4027
33.9172
35.478
37.0861
38.7428
40.4491
42.2063
44.0157
45.8785
47.7964
49.7706
51.8029
53.8948
56.0482
58.2649
60.5468
62.896
65.3146
67.8049
70.3692
73.0098
75.7293
78.53
81.4147
84.3857
87.4457
90.5972
93.8427
97.1846
100.625
104.167
107.812
111.563
115.421
119.388
123.466
127.657
131.962
136.382
140.92
145.576
150.352
155.249
160.268
165.411
170.679
176.074
181.597
187.249
193.031
198.945
204.991
211.168
217.475
223.911
230.471
237.152
243.947
250.844
257.804
264.816
271.866
278.942
286.029
293.113
300.176
307.202
314.172
321.069
327.871
334.559
341.109
347.499
353.703
359.698
365.454
370.944
376.142
381.025
385.568
389.751
393.555
396.962
399.956
402.523
404.657
406.355
407.619
408.453
408.866
408.872
408.484
407.722
406.608
405.167
403.423
401.403
399.131
396.636
393.941
391.071
388.049
384.896
381.632
378.272
374.833
371.327
367.765
364.155
360.505
356.82
353.103
349.356
345.578
341.768
337.923
334.037
330.106
326.123
322.079
317.967
313.779
309.504
305.134
300.659
296.069
291.355
286.509
281.527
276.402
271.128
265.702
260.119
254.38
248.489
242.449
236.269
229.957
223.527
216.997
210.387
203.72
197.023
190.325
183.66
177.065
170.58
164.253
158.138
152.29
146.777
141.581
136.815
47.8874
18.4799
13.21
11.5432
10.9726
10.8907
11.0816
11.4493
11.9441
12.5374
13.2114
13.9542
14.7574
15.6153
16.5235
17.479
18.4796
19.5241
20.6116
21.742
22.9151
24.1315
25.3916
26.6964
28.0468
29.4437
30.8883
32.3818
33.9254
35.5204
37.1682
38.8702
40.6277
42.4424
44.3157
46.2494
48.2452
50.3048
52.4302
54.6235
56.8866
59.2219
61.6317
64.1184
66.6845
69.3327
72.0658
74.8865
77.7979
80.8027
83.9041
87.105
90.4085
93.8175
97.335
100.964
104.707
108.567
112.546
116.647
120.871
125.222
129.701
134.31
139.049
143.921
148.928
154.069
159.348
164.763
170.318
176.013
181.848
187.826
193.947
200.212
206.623
213.18
219.883
226.733
233.726
240.861
248.134
255.54
263.07
270.682
278.353
286.072
293.824
301.597
309.375
317.144
324.885
332.579
340.21
347.758
355.203
362.525
369.7
376.706
383.518
390.111
396.455
402.517
408.271
413.692
418.755
423.436
427.714
431.571
434.988
437.942
440.428
442.44
443.978
445.046
445.651
445.804
445.521
444.82
443.723
442.255
440.441
438.309
435.887
433.202
430.282
427.153
423.84
420.365
416.751
413.015
409.175
405.245
401.237
397.161
393.025
388.835
384.596
380.309
375.975
371.592
367.157
362.666
358.113
353.492
348.794
344.012
339.136
334.158
329.068
323.857
318.514
313.033
307.404
301.625
295.689
289.593
283.334
276.913
270.332
263.597
256.714
249.696
242.554
235.307
227.974
220.577
213.142
205.697
198.271
190.898
183.612
176.452
169.461
162.688
156.177
149.988
144.097
138.603
49.9191
19.1655
13.6085
11.8199
11.177
11.0434
11.1927
11.5244
11.9866
12.5496
13.1953
13.9115
14.6899
15.525
16.4125
17.3498
18.3348
19.3664
20.4442
21.568
22.7381
23.9551
25.2199
26.5334
27.897
29.312
30.7796
32.3016
33.8794
35.5146
37.209
38.9644
40.7826
42.6655
44.615
46.6333
48.7226
50.885
53.1229
55.4388
57.8353
60.3151
62.8809
65.5358
68.2826
71.1246
74.0651
77.1073
80.2547
83.5108
86.8791
90.363
93.9661
97.6918
101.544
105.524
109.638
113.887
118.274
122.802
127.473
132.289
137.253
142.365
147.628
153.042
158.609
164.329
170.203
176.232
182.417
188.757
195.254
201.907
208.716
215.684
222.809
230.093
237.536
245.134
252.888
260.791
268.841
277.028
285.327
293.681
302.08
310.512
318.962
327.417
335.865
344.287
352.662
360.971
369.199
377.327
385.335
393.204
400.91
408.433
415.748
422.837
429.665
436.191
442.393
448.246
453.725
458.805
463.461
467.671
471.417
474.677
477.441
479.7
481.452
482.698
483.442
483.696
483.472
482.79
481.67
480.137
478.217
475.939
473.331
470.424
467.245
463.823
460.184
456.354
452.355
448.208
443.931
439.539
435.048
430.466
425.804
421.069
416.264
411.393
406.456
401.453
396.38
391.234
386.008
380.697
375.292
369.786
364.17
358.435
352.572
346.572
340.426
334.128
327.671
321.051
314.265
307.311
300.19
292.904
285.46
277.866
270.131
262.272
254.304
246.247
238.123
229.958
221.779
213.613
205.492
197.448
189.515
181.729
174.128
166.756
159.65
152.858
146.352
140.22
51.1524
19.5991
13.8548
11.9803
11.2821
11.1063
11.2202
11.5203
11.9535
12.4895
13.1098
13.8023
14.559
15.3743
16.2443
17.1664
18.1391
19.1614
20.2331
21.3544
22.5258
23.7482
25.023
26.3513
27.7349
29.1754
30.6748
32.2348
33.8576
35.5453
37.3
39.1242
41.0201
42.9901
45.0369
47.1631
49.3714
51.6646
54.0458
56.5179
59.0843
61.7481
64.5127
67.3818
70.3587
73.4474
76.6516
79.9752
83.4224
86.9971
90.7033
94.545
98.5263
102.651
106.923
111.345
115.922
120.656
125.55
130.607
135.83
141.219
146.777
152.506
158.405
164.475
170.717
177.131
183.717
190.474
197.403
204.504
211.772
219.208
226.812
234.582
242.519
250.621
258.888
267.317
275.904
284.645
293.531
302.548
311.613
320.71
329.826
338.946
348.057
357.146
366.201
375.21
384.134
392.961
401.677
410.265
418.707
426.985
435.077
442.964
450.624
458.035
465.167
471.992
478.482
484.613
490.359
495.693
500.591
505.029
508.985
512.439
515.377
517.787
519.664
521.005
521.814
522.099
521.872
521.15
519.954
518.307
516.235
513.768
510.934
507.765
504.291
500.54
496.541
492.32
487.902
483.309
478.561
473.674
468.663
463.539
458.314
452.995
447.585
442.09
436.509
430.843
425.089
419.242
413.298
407.251
401.093
394.816
388.414
381.876
375.195
368.364
361.373
354.219
346.897
339.404
331.739
323.902
315.898
307.732
299.414
290.955
282.368
273.672
264.886
256.033
247.138
238.228
229.331
220.477
211.697
203.024
194.489
186.128
177.976
170.069
162.44
155.127
148.1
141.433
51.625
19.7919
13.9592
12.0354
11.3008
11.0943
11.1808
11.4558
11.8657
12.3801
12.9805
13.655
14.3956
15.1972
16.056
16.97
17.9377
18.9585
20.0327
21.1606
22.3434
23.5822
24.8788
26.235
27.6529
29.1349
30.6832
32.3004
33.9893
35.7526
37.5931
39.5139
41.518
43.6087
45.7891
48.0628
50.4332
52.904
55.4789
58.1617
60.9565
63.8673
66.8984
70.0537
73.3374
76.7539
80.3079
84.0039
87.8464
91.8401
95.9894
100.299
104.772
109.415
114.229
119.22
124.391
129.744
135.282
141.009
146.924
153.031
159.33
165.82
172.502
179.376
186.439
193.691
201.13
208.755
216.565
224.561
232.731
241.072
249.584
258.266
267.115
276.128
285.304
294.638
304.123
313.756
323.523
333.326
343.134
352.933
362.709
372.447
382.133
391.751
401.287
410.726
420.044
429.226
438.258
447.122
455.805
464.289
472.559
480.596
488.383
495.9
503.124
510.031
516.597
522.797
528.608
534.004
538.96
543.452
547.457
550.954
553.924
556.355
558.237
559.565
560.339
560.566
560.255
559.42
558.08
556.258
553.98
551.273
548.168
544.695
540.884
536.767
532.372
527.727
522.858
517.787
512.534
507.119
501.557
495.859
490.038
484.1
478.052
471.897
465.637
459.271
452.797
446.213
439.512
432.69
425.74
418.655
411.427
404.05
396.516
388.819
380.952
372.913
364.699
356.31
347.747
339.013
330.116
321.064
311.87
302.549
293.117
283.596
274.008
264.38
254.737
245.109
235.526
226.018
216.618
207.358
198.27
189.387
180.741
172.364
164.284
156.533
149.078
141.983
51.4038
19.7606
13.9335
11.998
11.2479
11.0251
11.0956
11.3555
11.7516
12.2539
12.8441
13.5107
14.2462
15.0455
15.9057
16.8247
17.8017
18.8367
19.9302
21.0831
22.2969
23.5736
24.9154
26.3249
27.8049
29.3585
30.9888
32.6992
34.4933
36.3748
38.3475
40.4152
42.5822
44.8525
47.2305
49.7206
52.3273
55.0553
57.9092
60.894
64.0146
67.2764
70.685
74.2439
77.9578
81.8322
85.8724
90.0834
94.4704
99.0381
103.791
108.735
113.872
119.208
124.746
130.49
136.442
142.604
148.98
155.568
162.372
169.389
176.62
184.064
191.717
199.578
207.643
215.908
224.369
233.021
241.86
250.881
260.077
269.441
278.968
288.655
298.497
308.489
318.627
328.904
339.312
349.844
360.381
370.882
381.331
391.715
402.017
412.223
422.318
432.285
442.109
451.776
461.268
470.57
479.67
488.555
497.212
505.63
513.798
521.703
529.332
536.671
543.705
550.414
556.781
562.784
568.402
573.612
578.391
582.716
586.562
589.908
592.732
595.02
596.757
597.937
598.555
598.613
598.118
597.082
595.521
593.454
590.907
587.905
584.479
580.657
576.471
571.951
567.126
562.025
556.673
551.095
545.311
539.341
533.2
526.901
520.456
513.873
507.158
500.314
493.345
486.249
479.026
471.673
464.185
456.558
448.785
440.862
432.781
424.537
416.124
407.538
398.774
389.832
380.711
371.414
361.945
352.31
342.52
332.586
322.525
312.354
302.094
291.769
281.404
271.027
260.667
250.355
240.123
230.002
220.026
210.225
200.633
191.281
182.198
173.414
164.953
156.842
149.046
141.625
50.5899
19.5279
13.793
11.8847
11.1436
10.9236
10.9949
11.2559
11.6544
12.1613
12.759
13.4366
14.1868
15.0054
15.8898
16.8387
17.8521
18.9305
20.0759
21.2886
22.5712
23.9267
25.3583
26.8695
28.4643
30.1468
31.9214
33.7926
35.7653
37.8444
40.035
42.3425
44.7723
47.3299
50.0211
52.8515
55.827
58.9535
62.2368
65.6829
69.2978
73.0873
77.0574
81.2134
85.5607
90.1051
94.8519
99.8062
104.973
110.357
115.962
121.792
127.851
134.142
140.666
147.426
154.423
161.658
169.13
176.838
184.781
192.956
201.36
209.987
218.834
227.893
237.158
246.622
256.277
266.113
276.123
286.298
296.627
307.101
317.711
328.45
339.31
350.283
361.368
372.55
383.816
395.015
406.12
417.117
427.991
438.727
449.309
459.721
469.948
479.975
489.787
499.371
508.714
517.804
526.631
535.187
543.465
551.458
559.163
566.573
573.683
580.487
586.976
593.141
598.969
604.446
609.555
614.279
618.596
622.484
625.921
628.883
631.349
633.298
634.715
635.587
635.906
635.669
634.879
633.544
631.675
629.289
626.407
623.054
619.257
615.044
610.445
605.489
600.205
594.622
588.764
582.657
576.321
569.775
563.035
556.116
549.028
541.779
534.377
526.825
519.125
511.279
503.286
495.142
486.846
478.393
469.778
460.997
452.044
442.917
433.611
424.123
414.453
404.602
394.571
384.367
373.996
363.468
352.797
341.999
331.091
320.095
309.035
297.937
286.829
275.742
264.706
253.754
242.919
232.233
221.73
211.442
201.401
191.636
182.176
173.049
164.273
155.875
147.819
140.161
49.338
19.1273
13.5605
11.7211
11.0205
10.8312
10.9307
11.2203
11.6501
12.1923
12.8306
13.5542
14.357
15.2354
16.1879
17.2143
18.3153
19.4927
20.749
22.087
23.5104
25.0233
26.6306
28.3373
30.1489
32.0713
34.1106
36.2732
38.5657
40.9949
43.568
46.292
49.1744
52.2225
55.4437
58.8454
62.4348
66.2193
70.2057
74.4009
78.8115
83.4438
88.3037
93.3968
98.7285
104.304
110.127
116.201
122.531
129.119
135.966
143.074
150.443
158.074
165.965
174.116
182.523
191.184
200.093
209.247
218.639
228.261
238.107
248.168
258.434
268.893
279.536
290.35
301.322
312.439
323.688
335.055
346.526
358.087
369.726
381.43
393.193
404.993
416.86
428.679
440.325
451.805
463.106
474.215
485.117
495.797
506.24
516.429
526.353
535.996
545.348
554.397
563.134
571.553
579.647
587.415
594.855
601.969
608.758
615.227
621.378
627.215
632.738
637.947
642.839
647.408
651.643
655.533
659.06
662.207
664.95
667.267
669.134
670.528
671.429
671.819
671.686
671.02
669.818
668.082
665.819
663.04
659.763
656.007
651.797
647.158
642.117
636.701
630.939
624.857
618.48
611.832
604.933
597.803
590.456
582.907
575.167
567.244
559.145
550.874
542.435
533.829
525.054
516.11
506.996
497.707
488.241
478.595
468.766
458.752
448.551
438.164
427.591
416.838
405.908
394.812
383.558
372.161
360.637
349.004
337.285
325.504
313.686
301.862
290.061
278.315
266.658
255.123
243.744
232.554
221.587
210.875
200.448
190.336
180.565
171.161
162.14
153.525
145.285
137.469
47.8932
18.6166
13.2803
11.5588
10.9443
10.8317
11.0077
11.3777
11.8935
12.5292
13.2697
14.1064
15.0348
16.0531
17.1614
18.3613
19.6556
21.0481
22.5434
24.1468
25.8643
27.7028
29.6693
31.7719
34.0186
36.4181
38.9794
41.7115
44.6239
47.7262
51.028
54.5389
58.2686
62.2266
66.4217
70.8628
75.558
80.5147
85.7399
91.2397
97.0195
103.084
109.436
116.079
123.016
130.247
137.772
145.592
153.703
162.103
170.787
179.75
188.987
198.491
208.256
218.273
228.533
239.026
249.742
260.669
271.795
283.109
294.597
306.244
318.036
329.958
341.994
354.126
366.338
378.612
390.933
403.28
415.633
427.981
440.301
452.576
464.837
476.969
488.836
500.452
511.818
522.926
533.768
544.332
554.603
564.569
574.216
583.531
592.503
601.121