/*--------------------------------*- C++ -*----------------------------------*\
| =========                 |                                                 |
| \\      /  F ield         | OpenFOAM: The Open Source CFD Toolbox           |
|  \\    /   O peration     | Version:  2.2.x                                 |
|   \\  /    A nd           | Web:      www.OpenFOAM.org                      |
|    \\/     M anipulation  |                                                 |
\*---------------------------------------------------------------------------*/
FoamFile
{
    version     2.0;
    format      ascii;
    class       volScalarField;
    location    "450";
    object      k;
}
// * * * * * * * * * * * * * * * * * * * * * * * * * * * * * * * * * * * * * //

dimensions      [0 2 -2 0 0 0 0];

internalField   nonuniform List<scalar> 
12225
(
0.773254
1.11727
1.35409
1.50337
1.59085
1.63718
1.65706
1.66041
1.65373
1.64121
1.62549
1.60822
1.59043
1.57276
1.55558
1.5391
1.52317
1.50922
0.492803
0.515897
0.520061
0.519334
0.515964
0.51106
0.505586
0.500224
0.495396
0.491331
0.488133
0.48582
0.484364
0.483711
0.483808
0.484684
0.486941
0.490496
0.412018
0.424096
0.42186
0.414169
0.404226
0.393411
0.382462
0.37181
0.361714
0.352323
0.343714
0.335917
0.328924
0.32271
0.317237
0.312471
0.308373
0.304749
0.381869
0.385949
0.386337
0.383939
0.379748
0.374467
0.368565
0.362356
0.356053
0.3498
0.343699
0.337816
0.332195
0.326863
0.321834
0.31711
0.312684
0.308552
0.375243
0.37552
0.374935
0.373413
0.371107
0.368206
0.364885
0.361287
0.357525
0.353683
0.349825
0.346
0.342244
0.338584
0.335037
0.331618
0.328333
0.325207
0.373469
0.372204
0.370886
0.369331
0.367504
0.36543
0.363155
0.360731
0.358203
0.355614
0.352995
0.350374
0.347774
0.345212
0.342701
0.340252
0.337874
0.335593
0.372982
0.371101
0.36935
0.367627
0.365877
0.364076
0.36222
0.360316
0.358377
0.356418
0.354451
0.352491
0.350547
0.348629
0.346745
0.344901
0.343104
0.341376
0.372867
0.370792
0.36886
0.367023
0.365245
0.363499
0.361771
0.360053
0.358345
0.35665
0.354971
0.353312
0.351678
0.350074
0.348503
0.346969
0.345476
0.344041
0.372829
0.37068
0.368664
0.366759
0.364945
0.363202
0.361516
0.359877
0.358278
0.356715
0.355188
0.353696
0.352238
0.350817
0.349433
0.348086
0.346779
0.345527
0.372814
0.370635
0.368579
0.366634
0.364789
0.363033
0.361355
0.359746
0.358199
0.356707
0.355266
0.353873
0.352526
0.351222
0.349961
0.348742
0.347564
0.34644
0.372807
0.370616
0.368543
0.366578
0.364715
0.362947
0.361264
0.359661
0.358131
0.356667
0.355266
0.353923
0.352634
0.351396
0.350206
0.349063
0.347964
0.346921
0.372803
0.370607
0.368526
0.366553
0.364681
0.362903
0.361215
0.359609
0.358081
0.356625
0.355236
0.353912
0.352646
0.351437
0.35028
0.349173
0.348115
0.347114
0.3728
0.370601
0.368516
0.366539
0.364662
0.36288
0.361187
0.359578
0.358047
0.35659
0.355203
0.353881
0.352622
0.35142
0.350274
0.34918
0.348136
0.347151
0.372797
0.370597
0.36851
0.36653
0.36465
0.362865
0.361169
0.359556
0.358023
0.356563
0.355174
0.353851
0.35259
0.351389
0.350243
0.349151
0.348109
0.347128
0.372796
0.370594
0.368505
0.366523
0.364641
0.362854
0.361155
0.359541
0.358004
0.356543
0.355151
0.353826
0.352563
0.351359
0.350212
0.349117
0.348074
0.347092
0.372795
0.370592
0.368502
0.366518
0.364635
0.362846
0.361146
0.359529
0.357991
0.356527
0.355133
0.353806
0.352541
0.351335
0.350186
0.349089
0.348044
0.34706
0.372794
0.37059
0.3685
0.366515
0.364631
0.362841
0.361139
0.359521
0.357981
0.356516
0.355121
0.353791
0.352525
0.351317
0.350166
0.349068
0.348021
0.347035
0.372794
0.37059
0.368499
0.366514
0.364629
0.362838
0.361136
0.359517
0.357976
0.35651
0.355114
0.353784
0.352516
0.351307
0.350155
0.349056
0.348008
0.347021
0.372794
0.37059
0.3685
0.366515
0.36463
0.362839
0.361136
0.359517
0.357976
0.35651
0.355113
0.353783
0.352514
0.351305
0.350153
0.349053
0.348005
0.347017
0.372795
0.370591
0.368501
0.366517
0.364632
0.362842
0.36114
0.359521
0.35798
0.356514
0.355118
0.353788
0.35252
0.351311
0.350159
0.349059
0.348011
0.347024
0.372795
0.370593
0.368504
0.36652
0.364637
0.362848
0.361148
0.359531
0.357992
0.356528
0.355134
0.353805
0.352539
0.351332
0.35018
0.349081
0.348033
0.347046
0.372797
0.370596
0.368509
0.36653
0.364652
0.362869
0.361175
0.359564
0.358033
0.356575
0.355185
0.353861
0.352597
0.35139
0.350238
0.349136
0.348083
0.347089
0.3728
0.370607
0.368532
0.36657
0.364713
0.362953
0.361281
0.359691
0.358176
0.356729
0.355345
0.354019
0.352748
0.351527
0.350354
0.349226
0.348143
0.347114
0.372816
0.370662
0.368649
0.366761
0.36498
0.363289
0.361672
0.360117
0.358616
0.357162
0.35575
0.354378
0.353044
0.351746
0.350484
0.349258
0.348068
0.346928
0.372911
0.370959
0.369194
0.367544
0.365953
0.364384
0.362817
0.361245
0.359668
0.358088
0.356511
0.354943
0.353389
0.351853
0.350342
0.348858
0.347405
0.346002
0.373469
0.372367
0.371364
0.370238
0.368904
0.367357
0.365627
0.363754
0.361778
0.359732
0.357644
0.355538
0.35343
0.351337
0.349268
0.347233
0.34524
0.343311
0.376461
0.378229
0.378835
0.378174
0.376551
0.374272
0.371563
0.368577
0.365421
0.362171
0.358879
0.355586
0.352321
0.349105
0.345957
0.342887
0.339905
0.337034
0.392606
0.401341
0.402164
0.399515
0.395304
0.390341
0.385012
0.379523
0.373993
0.368502
0.363105
0.357845
0.352754
0.347852
0.343156
0.338673
0.334406
0.330366
0.438299
0.449785
0.450809
0.449579
0.447831
0.445853
0.44373
0.441508
0.439223
0.436914
0.434618
0.432371
0.430205
0.428144
0.426203
0.424388
0.422686
0.421038
0.544749
0.705345
0.836386
0.946124
1.04198
1.12365
1.19166
1.2471
1.29139
1.32603
1.35249
1.37212
1.38611
1.39551
1.4012
1.40393
1.40431
1.40282
0.0103865
0.017367
0.0221266
0.0260782
0.030225
0.0343856
0.0390938
0.0444114
0.0500801
0.0560936
0.0623606
0.0688071
0.0753835
0.0820566
0.088803
0.0956065
0.102456
0.109346
0.116274
0.123247
0.130277
0.137388
0.144617
0.151923
0.15926
0.166623
0.174013
0.181431
0.188878
0.196357
0.203869
0.211418
0.219007
0.226641
0.234325
0.242062
0.24986
0.257723
0.265658
0.27367
0.281767
0.289954
0.298238
0.306625
0.315121
0.323734
0.332468
0.341329
0.350324
0.359458
0.368736
0.378161
0.387739
0.397473
0.407366
0.417421
0.427641
0.438026
0.448579
0.459301
0.47019
0.481247
0.492471
0.503858
0.515406
0.527112
0.53897
0.550975
0.56312
0.575398
0.587799
0.600314
0.61293
0.625634
0.638412
0.651249
0.664127
0.677027
0.689931
0.702816
0.715661
0.728445
0.741148
0.753752
0.766246
0.778627
0.790909
0.803131
0.815376
0.827377
0.839016
0.850256
0.86106
0.87139
0.881205
0.890466
0.899132
0.907165
0.914527
0.921183
0.927101
0.93225
0.936603
0.940137
0.942833
0.94468
0.94567
0.945803
0.945083
0.943522
0.941138
0.937956
0.934007
0.929325
0.923955
0.917942
0.911339
0.904201
0.896589
0.888564
0.880189
0.871526
0.862636
0.853583
0.84443
0.835235
0.826047
0.816917
0.807891
0.79901
0.790311
0.781826
0.773586
0.765631
0.758031
0.751037
0.744402
0.73805
0.731961
0.726121
0.720513
0.715121
0.709918
0.704882
0.699992
0.695223
0.690565
0.686012
0.681679
0.677366
0.673039
0.668672
0.664232
0.659688
0.65502
0.650202
0.645207
0.64002
0.634628
0.629028
0.623213
0.61718
0.610915
0.604434
0.597761
0.590881
0.583829
0.576627
0.569276
0.561834
0.554301
0.546729
0.539132
0.531378
0.523882
0.516787
0.509818
0.508944
0.508903
0.500835
0.0232914
0.0427582
0.0575278
0.0692235
0.0792
0.0886764
0.0983087
0.108433
0.119116
0.130299
0.141892
0.153819
0.16602
0.178453
0.191082
0.203881
0.216827
0.229901
0.243087
0.256371
0.269744
0.283195
0.296715
0.31029
0.323913
0.337581
0.351294
0.365051
0.378855
0.392706
0.406609
0.420568
0.434587
0.448673
0.462832
0.477074
0.491406
0.505838
0.52038
0.535043
0.549838
0.564778
0.579873
0.595137
0.610581
0.626218
0.642061
0.658122
0.674413
0.690946
0.707733
0.724785
0.742112
0.759724
0.77763
0.79584
0.814361
0.833201
0.852368
0.871866
0.891702
0.911879
0.9324
0.953268
0.974484
0.996047
1.01796
1.04021
1.06281
1.08574
1.109
1.13258
1.15646
1.18064
1.20509
1.2298
1.25474
1.2799
1.30524
1.33073
1.35634
1.38203
1.40776
1.43349
1.45918
1.48478
1.51025
1.53555
1.56052
1.58501
1.60903
1.63253
1.65542
1.67763
1.69908
1.7197
1.73939
1.75808
1.77569
1.79212
1.80732
1.8212
1.83369
1.84473
1.85426
1.86225
1.86865
1.87344
1.87661
1.87815
1.87808
1.87642
1.8732
1.86847
1.86231
1.85476
1.84593
1.8359
1.82476
1.81262
1.79959
1.78576
1.77126
1.7562
1.74067
1.72479
1.70865
1.69234
1.67596
1.65959
1.64329
1.62714
1.61119
1.59548
1.58007
1.56496
1.55039
1.53628
1.5226
1.50934
1.49649
1.48405
1.47201
1.46034
1.44903
1.43804
1.4274
1.41689
1.4064
1.39606
1.38583
1.37569
1.36561
1.35555
1.34549
1.3354
1.32526
1.31505
1.30475
1.29436
1.28387
1.2733
1.26263
1.25188
1.24108
1.23024
1.2194
1.2086
1.19785
1.18724
1.17678
1.16652
1.15653
1.14658
1.13716
1.12877
1.12063
1.11519
1.11037
1.1088
0.0352018
0.069119
0.0896894
0.105052
0.118536
0.131438
0.144422
0.157822
0.171757
0.186218
0.201144
0.216466
0.232121
0.248056
0.264231
0.280614
0.297176
0.313897
0.330757
0.347742
0.364836
0.38203
0.399311
0.416673
0.43411
0.451619
0.469197
0.486847
0.504568
0.522362
0.540234
0.558187
0.576227
0.594359
0.612592
0.630933
0.649393
0.66798
0.686707
0.705586
0.724628
0.743846
0.763254
0.782866
0.802696
0.822758
0.843067
0.863636
0.884479
0.905611
0.927044
0.948792
0.970865
0.993276
1.01604
1.03915
1.06264
1.0865
1.11075
1.13538
1.16042
1.18585
1.21169
1.23793
1.26458
1.29163
1.3191
1.34696
1.37523
1.40389
1.43294
1.46236
1.49215
1.52229
1.55276
1.58355
1.61463
1.64598
1.67756
1.70935
1.74132
1.77341
1.80558
1.8378
1.87001
1.90215
1.93418
1.96603
1.99748
2.02849
2.05899
2.08891
2.11815
2.14663
2.17425
2.2009
2.2265
2.25092
2.27407
2.29585
2.31616
2.3349
2.35198
2.36732
2.38083
2.39246
2.40216
2.40988
2.4156
2.41931
2.421
2.42071
2.41847
2.41433
2.40835
2.40062
2.39124
2.3803
2.36793
2.35424
2.33935
2.32341
2.30655
2.28889
2.27056
2.2517
2.23241
2.21282
2.19302
2.17313
2.15322
2.13338
2.11368
2.09417
2.07493
2.05594
2.03734
2.01919
2.00145
1.9841
1.96714
1.95055
1.93432
1.91844
1.90287
1.88759
1.87241
1.85734
1.84237
1.82749
1.81268
1.79789
1.78308
1.76823
1.7533
1.73827
1.72312
1.70782
1.69236
1.67672
1.66092
1.64495
1.62883
1.61255
1.59616
1.57969
1.56315
1.54661
1.53011
1.51368
1.49744
1.48129
1.46556
1.45023
1.43586
1.42293
1.41152
1.40295
1.39656
1.39543
0.0454506
0.092372
0.117952
0.136878
0.153299
0.168804
0.184177
0.199826
0.215935
0.232556
0.249671
0.267229
0.285174
0.303453
0.32202
0.340838
0.359876
0.379109
0.398516
0.418079
0.437785
0.457622
0.477579
0.497648
0.517824
0.538104
0.558485
0.578966
0.599547
0.62023
0.641018
0.661912
0.682919
0.704044
0.725293
0.746675
0.768198
0.789872
0.811708
0.833718
0.855915
0.878311
0.90092
0.923756
0.946836
0.970172
0.993781
1.01768
1.04188
1.06639
1.09124
1.11643
1.14198
1.1679
1.19421
1.2209
1.24801
1.27552
1.30345
1.33182
1.36061
1.38985
1.41953
1.44965
1.48022
1.51124
1.54271
1.57462
1.60698
1.63977
1.673
1.70665
1.74071
1.77517
1.81003
1.84525
1.88082
1.91672
1.95292
1.98939
2.02609
2.06299
2.10004
2.1372
2.1744
2.2116
2.24873
2.28572
2.32236
2.35859
2.39433
2.4295
2.464
2.49772
2.53056
2.5624
2.59313
2.62262
2.65077
2.67743
2.70251
2.72588
2.74743
2.76705
2.78466
2.80017
2.8135
2.8246
2.83342
2.83995
2.84417
2.8461
2.84576
2.8432
2.83848
2.8317
2.82294
2.81231
2.79995
2.78598
2.77054
2.75377
2.73582
2.71684
2.69697
2.67636
2.65513
2.63342
2.61135
2.58902
2.56654
2.544
2.52149
2.49906
2.47677
2.45467
2.43277
2.41121
2.38998
2.36907
2.34847
2.32816
2.30813
2.28837
2.26879
2.24929
2.22987
2.21051
2.19119
2.17188
2.15254
2.13312
2.11359
2.0939
2.07403
2.05396
2.03367
2.01313
1.99231
1.97121
1.94983
1.92819
1.90629
1.88412
1.86173
1.83917
1.81644
1.79357
1.77073
1.74773
1.725
1.70255
1.68074
1.65972
1.64003
1.62222
1.60671
1.59459
1.58572
1.58261
0.0565499
0.112228
0.142591
0.164828
0.183874
0.201596
0.21891
0.236307
0.254043
0.272233
0.290905
0.310042
0.329606
0.349553
0.369839
0.390426
0.411281
0.432377
0.453692
0.475206
0.496904
0.518773
0.540803
0.562984
0.585311
0.607778
0.630382
0.65312
0.675992
0.698998
0.722137
0.745414
0.76883
0.79239
0.816101
0.839968
0.864
0.888206
0.912597
0.937182
0.961976
0.986989
1.01224
1.03774
1.0635
1.08954
1.11587
1.14252
1.16949
1.19681
1.22448
1.25253
1.28096
1.3098
1.33904
1.36872
1.39882
1.42938
1.46039
1.49186
1.52381
1.55623
1.58913
1.62252
1.65639
1.69076
1.72561
1.76095
1.79678
1.8331
1.86989
1.90716
1.9449
1.9831
2.02174
2.06082
2.10032
2.14022
2.18049
2.22111
2.26204
2.30326
2.34471
2.38635
2.42813
2.46998
2.51185
2.55362
2.59511
2.63626
2.67699
2.7172
2.75678
2.79563
2.83362
2.87063
2.90653
2.94119
2.97447
3.00625
3.03637
3.0647
3.09112
3.11549
3.1377
3.15764
3.17523
3.19037
3.203
3.21309
3.22061
3.22555
3.22793
3.22778
3.22516
3.22015
3.21284
3.20335
3.19179
3.17832
3.16306
3.14618
3.12784
3.10819
3.08739
3.06559
3.04294
3.01959
2.99566
2.97128
2.94657
2.92161
2.89651
2.87134
2.84616
2.82103
2.79598
2.77105
2.74631
2.72179
2.69747
2.67335
2.64938
2.62547
2.6016
2.57775
2.55389
2.53
2.50604
2.48198
2.45776
2.43336
2.40872
2.38379
2.35856
2.333
2.3071
2.28083
2.25415
2.22705
2.19952
2.17162
2.14333
2.11462
2.08551
2.05615
2.02646
1.99639
1.96641
1.93635
1.90661
1.87731
1.84884
1.82149
1.79581
1.77244
1.75196
1.73542
1.72283
1.71615
0.0668934
0.129204
0.163683
0.188839
0.210209
0.229877
0.248862
0.267726
0.286783
0.306202
0.326057
0.346368
0.367123
0.388293
0.409845
0.431746
0.453963
0.476471
0.499246
0.522268
0.545522
0.568992
0.592669
0.616541
0.640601
0.664844
0.689263
0.713856
0.738619
0.763551
0.788652
0.813921
0.839362
0.864977
0.890771
0.916749
0.942918
0.969286
0.995864
1.02266
1.04969
1.07696
1.10449
1.13229
1.16038
1.18877
1.21748
1.24653
1.27593
1.3057
1.33586
1.36642
1.3974
1.42881
1.46066
1.49298
1.52576
1.55904
1.5928
1.62707
1.66184
1.69714
1.73296
1.7693
1.80618
1.84359
1.88153
1.92002
1.95904
1.9986
2.03869
2.07931
2.12046
2.16213
2.20432
2.24701
2.2902
2.33386
2.37798
2.42254
2.4675
2.51284
2.55851
2.60448
2.65068
2.69706
2.74357
2.79
2.83627
2.88229
2.92797
2.97322
3.01791
3.06195
3.10519
3.14751
3.18877
3.22882
3.26752
3.30471
3.34024
3.37395
3.40568
3.43529
3.46264
3.48759
3.51003
3.52984
3.54695
3.56129
3.57279
3.58145
3.58725
3.59022
3.59039
3.58784
3.58265
3.57494
3.56481
3.55241
3.5379
3.52142
3.50316
3.48326
3.46191
3.43927
3.4155
3.39076
3.36518
3.33891
3.31208
3.28478
3.25713
3.2292
3.20109
3.17283
3.1445
3.11614
3.08778
3.05945
3.03117
3.00289
2.9746
2.94626
2.91784
2.88932
2.86067
2.83186
2.80286
2.77362
2.7441
2.71424
2.68402
2.65337
2.62226
2.59069
2.55864
2.52608
2.49297
2.45927
2.42496
2.39016
2.35484
2.31892
2.28232
2.24546
2.2082
2.1706
2.13297
2.09537
2.05812
2.02147
1.98583
1.95158
1.9193
1.88968
1.86341
1.84151
1.82404
1.81259
0.0760196
0.143382
0.18131
0.208958
0.232336
0.253694
0.274129
0.294251
0.314419
0.334844
0.355638
0.376854
0.398508
0.42059
0.443082
0.465959
0.489195
0.512768
0.536655
0.560838
0.585299
0.610026
0.635006
0.660228
0.685685
0.711367
0.73727
0.763389
0.789718
0.816256
0.843
0.869951
0.897107
0.924472
0.952049
0.979841
1.00786
1.0361
1.06458
1.09331
1.1223
1.15156
1.18111
1.21095
1.24112
1.27161
1.30246
1.33367
1.36526
1.39726
1.42967
1.46252
1.49583
1.52961
1.56387
1.59863
1.6339
1.6697
1.70604
1.74292
1.78036
1.81837
1.85694
1.89609
1.93582
1.97613
2.01703
2.05852
2.1006
2.14327
2.18653
2.23038
2.27482
2.31985
2.36546
2.41165
2.45841
2.50572
2.55359
2.60197
2.65086
2.70023
2.75003
2.80023
2.85077
2.90161
2.95266
3.00372
3.05472
3.10558
3.15619
3.20648
3.25631
3.30558
3.35415
3.40189
3.44864
3.49426
3.53859
3.58145
3.62267
3.66208
3.69949
3.73475
3.76767
3.79811
3.8259
3.85093
3.87307
3.89222
3.90832
3.92129
3.93112
3.9378
3.94136
3.94185
3.93934
3.93394
3.92575
3.91492
3.9016
3.88594
3.86812
3.84833
3.82673
3.8035
3.77882
3.75286
3.72577
3.69771
3.6688
3.63918
3.60896
3.57822
3.54707
3.51558
3.4838
3.45179
3.41959
3.38722
3.3547
3.32201
3.28914
3.25608
3.22279
3.18926
3.15545
3.12133
3.08688
3.05204
3.01677
2.98102
2.94475
2.9079
2.87041
2.83232
2.79362
2.75425
2.71418
2.67335
2.63164
2.58936
2.54644
2.50282
2.4585
2.41374
2.36854
2.32303
2.27746
2.23199
2.18695
2.14265
2.0995
2.05796
2.01862
1.98221
1.94947
1.92139
1.89805
1.88084
0.083833
0.154919
0.195656
0.225365
0.25042
0.273202
0.294864
0.316051
0.337151
0.358401
0.379947
0.401867
0.424201
0.446959
0.47014
0.493728
0.517709
0.542064
0.566775
0.591826
0.617201
0.642888
0.668875
0.695152
0.721708
0.748538
0.775632
0.802987
0.830596
0.858457
0.886566
0.914921
0.943523
0.972372
1.00147
1.03082
1.06043
1.09031
1.12046
1.15089
1.18161
1.21265
1.244
1.27569
1.30772
1.34013
1.37292
1.40612
1.43974
1.4738
1.50832
1.54332
1.57881
1.61483
1.65137
1.68846
1.72611
1.76433
1.80315
1.84256
1.88258
1.92321
1.96447
2.00636
2.04888
2.09204
2.13584
2.18029
2.22538
2.27111
2.3175
2.36453
2.41221
2.46055
2.50953
2.55915
2.60942
2.66033
2.71186
2.76401
2.81675
2.87005
2.9239
2.97825
3.03305
3.08825
3.14373
3.19932
3.25494
3.31053
3.36599
3.42123
3.47614
3.53059
3.58445
3.63759
3.68986
3.74109
3.79111
3.83974
3.88681
3.9321
3.97542
4.01658
4.05538
4.09163
4.12515
4.15578
4.18338
4.20781
4.22895
4.24673
4.26108
4.27197
4.27941
4.28343
4.28408
4.28145
4.27565
4.2668
4.25505
4.24058
4.22354
4.20414
4.18256
4.15897
4.13358
4.10656
4.07809
4.04831
4.01739
3.98547
3.95266
3.91907
3.88482
3.84997
3.8146
3.77878
3.74255
3.70594
3.66897
3.63164
3.59395
3.55588
3.51743
3.47857
3.43927
3.3995
3.35922
3.3184
3.277
3.23496
3.19223
3.14875
3.10442
3.05938
3.01356
2.96693
2.91945
2.87108
2.82178
2.77171
2.72087
2.66927
2.61695
2.5641
2.51081
2.45725
2.40363
2.35021
2.2973
2.24524
2.19446
2.14544
2.09879
2.05524
2.01555
1.98068
1.95072
1.92694
0.0903366
0.163989
0.206938
0.238293
0.264697
0.288632
0.311292
0.333345
0.355197
0.377107
0.399237
0.421688
0.444519
0.46776
0.49142
0.515501
0.539995
0.564891
0.590177
0.61584
0.64187
0.668253
0.694981
0.722043
0.749432
0.77714
0.805159
0.833484
0.86211
0.891033
0.92025
0.949758
0.979557
1.00965
1.04003
1.07071
1.1017
1.13299
1.16459
1.19652
1.22879
1.26141
1.29439
1.32775
1.36151
1.39567
1.43027
1.46532
1.50084
1.53685
1.57337
1.61043
1.64803
1.6862
1.72495
1.76431
1.80429
1.8449
1.88615
1.92807
1.97065
2.01391
2.05784
2.10247
2.14779
2.1938
2.24051
2.28792
2.33603
2.38484
2.43436
2.48458
2.5355
2.58713
2.63946
2.6925
2.74625
2.8007
2.85584
2.91168
2.96818
3.02534
3.08312
3.1415
3.20043
3.25986
3.31957
3.37948
3.43954
3.49966
3.55976
3.61976
3.67953
3.73896
3.79794
3.85631
3.91393
3.97063
4.02625
4.08059
4.13346
4.18464
4.23391
4.28105
4.32584
4.36807
4.40752
4.444
4.47733
4.50734
4.53388
4.55681
4.57606
4.59156
4.60327
4.61122
4.61544
4.61598
4.61295
4.60645
4.59664
4.58368
4.56774
4.54902
4.5277
4.504
4.4781
4.45019
4.42047
4.38909
4.35624
4.32206
4.28669
4.25026
4.21286
4.1746
4.13556
4.09582
4.05542
4.01442
3.97284
3.93069
3.88798
3.8447
3.80084
3.75639
3.71131
3.66559
3.61919
3.57207
3.5242
3.47552
3.426
3.37557
3.32419
3.27189
3.21867
3.16448
3.10932
3.05317
2.99603
2.938
2.87912
2.81943
2.75904
2.6981
2.63674
2.57517
2.51361
2.45234
2.39166
2.33195
2.27361
2.21716
2.16317
2.11237
2.0655
2.02348
1.98641
1.95547
0.095561
0.170761
0.215378
0.247993
0.275432
0.300252
0.323678
0.346394
0.368817
0.391215
0.413767
0.436587
0.459749
0.483296
0.507253
0.531632
0.556434
0.581658
0.607297
0.633344
0.659792
0.686632
0.713857
0.741459
0.769431
0.797767
0.826462
0.85551
0.884906
0.914649
0.944733
0.975159
1.00593
1.03703
1.06849
1.10028
1.13243
1.16494
1.19782
1.23108
1.26472
1.29876
1.33323
1.36812
1.40347
1.43928
1.47558
1.51239
1.54973
1.58762
1.62608
1.66513
1.7048
1.7451
1.78605
1.82767
1.86998
1.91298
1.9567
2.00115
2.04633
2.09225
2.13892
2.18634
2.23451
2.28344
2.33312
2.38356
2.43475
2.4867
2.5394
2.59285
2.64705
2.70199
2.75769
2.81414
2.87134
2.9293
2.988
3.04744
3.10761
3.1685
3.23007
3.29231
3.35516
3.41854
3.48224
3.5462
3.61039
3.67472
3.73912
3.80352
3.8678
3.93186
3.99557
4.05882
4.12145
4.1833
4.24421
4.30398
4.3624
4.41927
4.47433
4.52734
4.57805
4.62622
4.67161
4.714
4.75317
4.78892
4.82106
4.84939
4.8738
4.89418
4.91049
4.92269
4.9308
4.93485
4.93493
4.93112
4.92356
4.91243
4.89789
4.88013
4.85936
4.83578
4.80959
4.781
4.7502
4.71739
4.68273
4.6464
4.60855
4.5693
4.5288
4.48714
4.44441
4.40071
4.3561
4.31063
4.26433
4.21724
4.16937
4.12072
4.07129
4.02106
3.97002
3.91814
3.86539
3.81175
3.75718
3.70163
3.64508
3.58748
3.5288
3.46906
3.40825
3.34635
3.28338
3.21934
3.15427
3.08825
3.02133
2.95363
2.88525
2.81635
2.74712
2.67775
2.60849
2.53962
2.47146
2.40436
2.33875
2.27509
2.21396
2.15604
2.10202
2.05278
2.00841
1.97002
0.0995501
0.175406
0.221196
0.254718
0.2829
0.30835
0.332316
0.35549
0.378296
0.401011
0.423819
0.446847
0.470178
0.493867
0.51795
0.542448
0.567373
0.59273
0.61852
0.644741
0.671392
0.698468
0.725964
0.753877
0.782203
0.810936
0.840075
0.869614
0.899553
0.929888
0.960619
0.991745
1.02327
1.05519
1.08751
1.12023
1.15337
1.18693
1.22091
1.25534
1.29021
1.32556
1.36138
1.3977
1.43455
1.47192
1.50986
1.54837
1.58749
1.62723
1.66761
1.70867
1.75041
1.79286
1.83604
1.87997
1.92467
1.97014
2.0164
2.06346
2.11133
2.16002
2.20953
2.25985
2.31099
2.36295
2.41572
2.46931
2.52369
2.57887
2.63485
2.69161
2.74916
2.80748
2.86658
2.92645
2.9871
3.04852
3.11071
3.17366
3.23738
3.30183
3.36701
3.43288
3.49941
3.56637
3.63368
3.70129
3.76916
3.83724
3.90546
3.97375
4.04202
4.11016
4.17807
4.24563
4.31271
4.37917
4.44484
4.50953
4.57304
4.63518
4.69566
4.75419
4.81053
4.86441
4.91557
4.96374
5.00869
5.05018
5.08798
5.12179
5.15149
5.17694
5.19804
5.21474
5.22701
5.23486
5.23834
5.23754
5.23258
5.2236
5.21078
5.1943
5.17436
5.15117
5.12496
5.09592
5.06426
5.0302
4.99391
4.95558
4.91537
4.87343
4.82989
4.78489
4.73852
4.69088
4.64205
4.59209
4.54104
4.48896
4.43585
4.38174
4.32663
4.27051
4.21337
4.15519
4.09596
4.03565
3.97424
3.91169
3.84798
3.78308
3.71698
3.64969
3.58122
3.51157
3.44078
3.36887
3.29592
3.22199
3.14719
3.07164
2.99549
2.9189
2.84208
2.76524
2.68864
2.61255
2.5373
2.46324
2.39075
2.3203
2.25241
2.18771
2.12685
2.0706
2.01906
1.97323
0.102358
0.178094
0.224611
0.258722
0.287377
0.313219
0.337506
0.360937
0.383941
0.406797
0.429697
0.452771
0.476113
0.499785
0.523831
0.548281
0.573155
0.598466
0.624222
0.650426
0.677083
0.704192
0.731755
0.75977
0.788238
0.817157
0.846528
0.876349
0.906621
0.937345
0.968521
1.00015
1.03224
1.06479
1.09781
1.13129
1.16527
1.19973
1.23469
1.27017
1.30617
1.34272
1.37983
1.41752
1.4558
1.49471
1.53426
1.57448
1.61538
1.65699
1.69934
1.74245
1.78634
1.83102
1.87653
1.92287
1.97007
2.01814
2.06708
2.11691
2.16763
2.21924
2.27175
2.32515
2.37944
2.4346
2.49063
2.54752
2.60526
2.66382
2.72321
2.78341
2.84441
2.90618
2.96873
3.03205
3.09613
3.16098
3.22658
3.29293
3.36002
3.42784
3.49637
3.56557
3.63534
3.70546
3.77589
3.84662
3.9176
3.98882
4.06021
4.13174
4.20328
4.27477
4.34611
4.41723
4.488
4.55829
4.62795
4.69682
4.76471
4.83145
4.89676
4.96025
5.0217
5.08084
5.13738
5.19102
5.24149
5.28849
5.33176
5.37101
5.40603
5.43663
5.46268
5.48407
5.50073
5.51264
5.51982
5.52233
5.52027
5.51376
5.50296
5.48806
5.46926
5.44677
5.4208
5.39158
5.35932
5.32423
5.28653
5.24639
5.204
5.15951
5.11309
5.06486
5.01494
4.96344
4.91045
4.85604
4.80028
4.74321
4.68487
4.62528
4.56446
4.5024
4.43912
4.37459
4.30882
4.24179
4.17348
4.10388
4.03297
3.96075
3.88721
3.81239
3.73629
3.65896
3.58044
3.5008
3.42011
3.33848
3.25604
3.17293
3.08931
3.00537
2.92134
2.83743
2.75392
2.67108
2.58923
2.50869
2.42985
2.35313
2.27902
2.20807
2.14085
2.07807
2.01978
1.96689
0.104049
0.178997
0.225839
0.260248
0.289133
0.315146
0.33955
0.363047
0.386068
0.408895
0.431723
0.454687
0.477884
0.501385
0.52524
0.549486
0.57415
0.599251
0.624804
0.650819
0.677305
0.704268
0.731713
0.759646
0.788071
0.81699
0.846408
0.876329
0.906756
0.937694
0.969147
1.00112
1.03362
1.06666
1.10023
1.13436
1.16905
1.20432
1.24017
1.27663
1.31371
1.35142
1.3898
1.42884
1.46859
1.50906
1.55026
1.59224
1.63501
1.6786
1.72302
1.76831
1.81448
1.86156
1.90956
1.95851
2.0084
2.05927
2.11111
2.16393
2.21773
2.2725
2.32825
2.38497
2.44263
2.50122
2.56074
2.62115
2.68243
2.74457
2.80755
2.87134
2.9359
3.00122
3.06728
3.13406
3.20156
3.26976
3.33865
3.40823
3.47848
3.54938
3.62093
3.69305
3.76547
3.83817
3.9111
3.98426
4.05763
4.13118
4.20493
4.27887
4.35279
4.42668
4.50051
4.57419
4.64765
4.72077
4.79344
4.86551
4.9368
5.00711
5.07621
5.14379
5.20958
5.27329
5.3346
5.3932
5.44877
5.50097
5.54948
5.59401
5.63426
5.67002
5.70107
5.72726
5.74848
5.76465
5.77577
5.78186
5.78298
5.77924
5.77079
5.75779
5.74044
5.71895
5.69354
5.66443
5.63185
5.59601
5.55714
5.51544
5.47109
5.42428
5.37516
5.32388
5.27057
5.21536
5.15834
5.0996
5.03921
4.97724
4.91373
4.84872
4.78224
4.71429
4.6449
4.57406
4.50178
4.42806
4.35289
4.27629
4.19824
4.11877
4.03789
3.95564
3.87206
3.78722
3.70117
3.61401
3.52585
3.43681
3.34704
3.25671
3.16601
3.07513
2.98432
2.89381
2.80388
2.71479
2.62686
2.54041
2.4558
2.37342
2.2937
2.21714
2.14423
2.07559
2.01122
1.9519
0.104702
0.178286
0.22509
0.259535
0.288428
0.31441
0.338743
0.362129
0.384998
0.407635
0.430236
0.452939
0.475847
0.499034
0.522556
0.546456
0.570767
0.595514
0.620718
0.646396
0.672561
0.699226
0.726402
0.754101
0.782331
0.811102
0.840423
0.870302
0.900749
0.931773
0.963382
0.995588
1.0284
1.06183
1.09589
1.1306
1.16597
1.20201
1.23874
1.27618
1.31436
1.35328
1.39298
1.43347
1.47478
1.51692
1.55993
1.60383
1.64864
1.6944
1.74111
1.78881
1.83752
1.88725
1.93802
1.98985
2.04275
2.09671
2.15176
2.20788
2.26507
2.32332
2.38262
2.44294
2.50428
2.56659
2.62985
2.69403
2.75909
2.825
2.89174
2.95929
3.02754
3.09647
3.16606
3.23627
3.30709
3.37851
3.45049
3.52303
3.5961
3.6697
3.74378
3.81806
3.89247
3.96701
4.04164
4.11638
4.19121
4.26613
4.34114
4.41623
4.49133
4.56643
4.6415
4.71649
4.79137
4.86606
4.94046
5.01446
5.08793
5.16067
5.23248
5.3031
5.37224
5.43962
5.5049
5.56775
5.62781
5.68471
5.73809
5.78759
5.83288
5.87367
5.90968
5.94071
5.96658
5.98719
6.00245
6.01235
6.01693
6.01626
6.01046
5.99969
5.98413
5.96398
5.93946
5.91079
5.87821
5.84194
5.80222
5.75924
5.71322
5.66433
5.61277
5.55868
5.50221
5.44349
5.38263
5.31974
5.25491
5.1882
5.11967
5.04938
4.97736
4.90365
4.82827
4.75123
4.67257
4.59229
4.51041
4.42694
4.34192
4.25537
4.16733
4.07787
3.98705
3.89495
3.80166
3.7073
3.612
3.51592
3.41922
3.32209
3.22474
3.12739
3.03029
2.93368
2.83785
2.74306
2.64963
2.55786
2.4681
2.3807
2.29605
2.21458
2.13673
2.06301
1.99338
1.92851
0.104417
0.176141
0.222572
0.256812
0.285513
0.311284
0.335377
0.358491
0.381057
0.403359
0.425595
0.447905
0.470394
0.493141
0.516208
0.539641
0.563481
0.587758
0.6125
0.637727
0.66346
0.689718
0.716519
0.743881
0.771819
0.80035
0.829488
0.859251
0.889651
0.920706
0.95243
0.98484
1.01795
1.05178
1.08635
1.12167
1.15777
1.19467
1.23238
1.27094
1.31035
1.35066
1.39189
1.43405
1.47716
1.52126
1.56636
1.61249
1.65968
1.70795
1.75732
1.80782
1.85945
1.91224
1.96619
2.02132
2.07763
2.13512
2.19379
2.25362
2.3146
2.37671
2.43994
2.50423
2.56957
2.6359
2.70319
2.77138
2.84042
2.91026
2.98085
3.05213
3.12403
3.19649
3.26947
3.34292
3.4168
3.49108
3.56573
3.64073
3.71604
3.79164
3.86725
3.9428
4.01826
4.09364
4.16892
4.24413
4.31925
4.39431
4.46933
4.54431
4.61925
4.69416
4.76904
4.84391
4.91873
4.9935
5.06817
5.14265
5.21686
5.29066
5.36386
5.43625
5.50756
5.5775
5.64575
5.71195
5.77572
5.83665
5.89434
5.94838
5.99837
6.04396
6.08481
6.12063
6.1512
6.17633
6.1959
6.20984
6.21814
6.22083
6.21801
6.20981
6.19639
6.17795
6.15469
6.12683
6.09462
6.05829
6.01806
5.97416
5.9268
5.87618
5.82249
5.76589
5.70655
5.6446
5.58018
5.5134
5.44435
5.37314
5.29982
5.22447
5.14714
5.06787
4.98671
4.9037
4.81887
4.73225
4.64388
4.55381
4.46206
4.36871
4.27381
4.17745
4.07971
3.98071
3.88055
3.77939
3.67738
3.5747
3.47153
3.36809
3.26459
3.16129
3.05844
2.95629
2.85513
2.75523
2.65689
2.56043
2.46615
2.3744
2.28552
2.19989
2.11788
2.03991
1.96593
1.89647
0.103326
0.17275
0.218496
0.252312
0.28064
0.30604
0.329748
0.352456
0.374591
0.396439
0.418198
0.440007
0.461976
0.484186
0.506704
0.529584
0.552872
0.576609
0.600834
0.625557
0.650808
0.676616
0.703008
0.73001
0.757646
0.785939
0.814914
0.844593
0.874999
0.906155
0.938085
0.970812
1.00436
1.03875
1.07402
1.11017
1.14725
1.18528
1.22427
1.26427
1.30529
1.34736
1.3905
1.43475
1.48012
1.52663
1.57432
1.6232
1.6733
1.72464
1.77722
1.83106
1.88618
1.94258
2.00027
2.05923
2.11948
2.18099
2.24376
2.30775
2.37295
2.43931
2.5068
2.57538
2.64497
2.71554
2.78701
2.85931
2.93238
3.00613
3.08048
3.15537
3.23069
3.30639
3.38237
3.45858
3.53495
3.61143
3.68799
3.76459
3.84118
3.91746
3.99341
4.06903
4.14432
4.21927
4.29389
4.36821
4.44223
4.51601
4.58956
4.66294
4.73618
4.80932
4.88242
4.95552
5.02866
5.10187
5.17515
5.24849
5.32184
5.39512
5.4682
5.5409
5.613
5.68423
5.75426
5.82274
5.88926
5.9534
6.0147
6.0727
6.12695
6.177
6.22246
6.26297
6.29821
6.32794
6.35195
6.37013
6.3824
6.38876
6.38926
6.38399
6.3731
6.35676
6.33517
6.30855
6.27713
6.24115
6.20083
6.15642
6.10812
6.05615
6.00071
5.94198
5.88012
5.81531
5.74766
5.67732
5.6044
5.52899
5.4512
5.37109
5.28875
5.20423
5.11761
5.02892
4.93824
4.84561
4.75108
4.65474
4.55663
4.45685
4.35548
4.25263
4.14841
4.04295
3.9364
3.82893
3.72072
3.61197
3.50288
3.39368
3.28463
3.17597
3.06796
2.96088
2.85501
2.75064
2.64805
2.54755
2.44944
2.35403
2.26164
2.17259
2.08721
2.00585
1.92842
1.85539
0.101629
0.16834
0.213107
0.246291
0.274086
0.298983
0.322192
0.344391
0.366004
0.387316
0.408533
0.429781
0.451171
0.472795
0.494724
0.51702
0.539736
0.562916
0.586603
0.610832
0.635638
0.661058
0.687125
0.713876
0.741343
0.769559
0.798559
0.828374
0.859036
0.890579
0.923035
0.956436
0.990815
1.0262
1.06263
1.10014
1.13875
1.17849
1.2194
1.26151
1.30483
1.34939
1.39523
1.44235
1.49079
1.54055
1.59166
1.64414
1.69798
1.75321
1.80982
1.86782
1.9272
1.98795
2.05007
2.11353
2.17832
2.24441
2.31176
2.38034
2.4501
2.52099
2.59295
2.66591
2.73981
2.81456
2.89008
2.96627
3.04304
3.1203
3.19793
3.27583
3.35389
3.43202
3.5101
3.58805
3.66578
3.74323
3.82038
3.89706
3.97306
4.04843
4.12319
4.19734
4.27088
4.34381
4.41616
4.48796
4.55924
4.63006
4.70048
4.77056
4.84038
4.91004
4.97961
5.0492
5.11889
5.18877
5.25892
5.32937
5.40015
5.47123
5.54256
5.614
5.68539
5.75648
5.82697