/*--------------------------------*- C++ -*----------------------------------*\
| =========                 |                                                 |
| \\      /  F ield         | OpenFOAM: The Open Source CFD Toolbox           |
|  \\    /   O peration     | Version:  2.2.x                                 |
|   \\  /    A nd           | Web:      www.OpenFOAM.org                      |
|    \\/     M anipulation  |                                                 |
\*---------------------------------------------------------------------------*/
FoamFile
{
    version     2.0;
    format      ascii;
    class       volScalarField;
    location    "450";
    object      nut;
}
// * * * * * * * * * * * * * * * * * * * * * * * * * * * * * * * * * * * * * //

dimensions      [0 2 -1 0 0 0 0];

internalField   nonuniform List<scalar> 
12225
(
3.09428e-05
3.71944e-05
4.0947e-05
4.31451e-05
4.43826e-05
4.50243e-05
4.52968e-05
4.53425e-05
4.52513e-05
4.50797e-05
4.48632e-05
4.46242e-05
4.43767e-05
4.41295e-05
4.38878e-05
4.36546e-05
4.34281e-05
4.32288e-05
0.000116613
6.93688e-05
5.16059e-05
4.24156e-05
3.71546e-05
3.39218e-05
3.18296e-05
3.04308e-05
2.94814e-05
2.8839e-05
2.84152e-05
2.8153e-05
2.80136e-05
2.79698e-05
2.80015e-05
2.80929e-05
2.823e-05
2.8373e-05
0.000365115
0.000223247
0.000162463
0.000127921
0.000106047
9.12531e-05
8.07129e-05
7.28892e-05
6.68925e-05
6.21783e-05
5.83964e-05
5.5313e-05
5.27663e-05
5.06408e-05
4.88507e-05
4.73259e-05
4.59972e-05
4.48405e-05
0.000644613
0.000479084
0.00037871
0.000313462
0.000268371
0.00023581
0.000211422
0.000192592
0.000177683
0.000165627
0.000155704
0.000147412
0.000140391
0.000134379
0.000129179
0.000124636
0.000120634
0.000117166
0.000789271
0.000696804
0.000611926
0.000542066
0.000486099
0.000441372
0.000405341
0.00037597
0.00035173
0.000331484
0.000314386
0.0002998
0.000287244
0.000276348
0.000266823
0.000258446
0.00025105
0.000244611
0.000836147
0.000802045
0.000758909
0.000713899
0.000670983
0.000631907
0.000597134
0.000566509
0.000539635
0.000516051
0.000495314
0.000477023
0.000460835
0.000446456
0.00043364
0.000422184
0.000411933
0.000402876
0.000848366
0.000838517
0.000822837
0.000802892
0.000780496
0.000757176
0.000734014
0.000711687
0.000690574
0.000670853
0.000652575
0.000635718
0.000620218
0.000605989
0.000592939
0.000580981
0.00057004
0.000560168
0.000850837
0.000847528
0.000841613
0.000833099
0.000822402
0.000810113
0.000796825
0.000783048
0.000769177
0.000755503
0.000742225
0.000729472
0.000717323
0.000705818
0.000694973
0.00068479
0.000675267
0.000666523
0.000851475
0.000850225
0.000848001
0.000844579
0.000839915
0.000834113
0.000827361
0.000819884
0.000811902
0.000803614
0.00079519
0.000786764
0.000778442
0.000770304
0.00076241
0.000754802
0.000747519
0.000740691
0.000851641
0.00085103
0.000850151
0.000848867
0.000847087
0.000844767
0.000841912
0.000838565
0.000834791
0.000830668
0.000826274
0.000821687
0.000816976
0.000812202
0.000807419
0.000802672
0.000798004
0.000793521
0.000851672
0.000851219
0.000850723
0.000850138
0.000849416
0.00084852
0.000847425
0.00084612
0.000844604
0.000842889
0.000840993
0.000838941
0.000836757
0.000834467
0.000832099
0.000829677
0.000827227
0.000824817
0.000851674
0.000851249
0.000850836
0.000850423
0.000849996
0.000849539
0.000849039
0.000848485
0.000847869
0.000847186
0.000846435
0.000845616
0.000844735
0.000843795
0.000842805
0.00084177
0.000840704
0.000839637
0.000851671
0.000851248
0.000850846
0.000850463
0.000850095
0.000849738
0.000849386
0.000849035
0.000848681
0.00084832
0.000847949
0.000847567
0.000847172
0.000846763
0.000846341
0.000845906
0.000845461
0.000845023
0.000851668
0.000851243
0.000850841
0.00085046
0.000850099
0.000849756
0.000849428
0.000849115
0.000848815
0.000848525
0.000848244
0.000847971
0.000847704
0.000847443
0.000847186
0.000846933
0.000846686
0.000846456
0.000851666
0.000851239
0.000850835
0.000850452
0.00085009
0.000849746
0.00084942
0.000849111
0.000848816
0.000848535
0.000848268
0.000848012
0.000847767
0.000847533
0.000847309
0.000847093
0.000846888
0.000846705
0.000851665
0.000851236
0.000850831
0.000850446
0.000850082
0.000849737
0.000849409
0.000849098
0.000848802
0.000848521
0.000848252
0.000847997
0.000847753
0.000847521
0.000847299
0.000847087
0.000846886
0.000846708
0.000851664
0.000851235
0.000850828
0.000850443
0.000850077
0.000849731
0.000849401
0.000849089
0.000848791
0.000848508
0.000848238
0.000847981
0.000847736
0.000847501
0.000847278
0.000847065
0.000846863
0.000846684
0.000851664
0.000851234
0.000850827
0.000850441
0.000850075
0.000849728
0.000849398
0.000849084
0.000848785
0.000848501
0.00084823
0.000847972
0.000847725
0.00084749
0.000847265
0.00084705
0.000846848
0.000846667
0.000851664
0.000851235
0.000850828
0.000850442
0.000850076
0.000849728
0.000849398
0.000849084
0.000848785
0.0008485
0.000848228
0.000847969
0.000847721
0.000847485
0.000847258
0.000847042
0.000846837
0.000846655
0.000851665
0.000851236
0.00085083
0.000850444
0.000850078
0.000849731
0.0008494
0.000849085
0.000848784
0.000848496
0.00084822
0.000847956
0.000847701
0.000847456
0.00084722
0.000846991
0.000846773
0.000846575
0.000851666
0.000851238
0.000850832
0.000850446
0.000850077
0.000849724
0.000849383
0.000849053
0.00084873
0.000848412
0.000848098
0.000847785
0.000847473
0.00084716
0.000846845
0.000846529
0.000846214
0.00084591
0.000851667
0.000851237
0.000850823
0.000850417
0.00085001
0.000849591
0.000849153
0.000848687
0.000848187
0.000847648
0.000847069
0.000846448
0.000845786
0.000845085
0.000844348
0.000843577
0.00084278
0.000841975
0.000851661
0.000851195
0.000850681
0.000850075
0.000849335
0.00084843
0.000847337
0.000846048
0.000844563
0.000842893
0.000841053
0.000839061
0.00083694
0.000834712
0.000832398
0.00083002
0.000827599
0.000825181
0.00085157
0.000850737
0.000849405
0.000847416
0.00084469
0.000841225
0.000837076
0.000832333
0.000827102
0.000821496
0.000815619
0.000809566
0.000803418
0.000797246
0.000791105
0.000785041
0.000779093
0.000773335
0.000850707
0.000847137
0.000840905
0.000832089
0.000821115
0.000808553
0.000794968
0.000780846
0.000766572
0.00075243
0.000738622
0.000725284
0.000712499
0.000700317
0.000688756
0.00067782
0.000667502
0.000657841
0.000844113
0.000825223
0.000798527
0.000767724
0.000735638
0.000704115
0.000674198
0.000646372
0.000620795
0.000597442
0.000576196
0.000556896
0.000539366
0.000523434
0.000508938
0.00049573
0.000483678
0.000472711
0.000803425
0.000727155
0.000652713
0.000587754
0.000532927
0.000487138
0.000448876
0.000416725
0.000389514
0.00036631
0.000346375
0.000329128
0.000314107
0.000300944
0.000289343
0.000279069
0.000269928
0.000261787
0.000625871
0.000466121
0.000370229
0.000306321
0.00026095
0.000227466
0.000201968
0.00018204
0.000166133
0.000153213
0.000142561
0.000133667
0.000126156
0.000119752
0.000114246
0.000109478
0.000105326
0.000101714
0.000254186
0.000158463
0.000118166
9.48454e-05
7.98496e-05
6.96466e-05
6.2401e-05
5.7084e-05
5.30824e-05
5.00102e-05
4.76132e-05
4.57186e-05
4.42052e-05
4.29863e-05
4.19982e-05
4.11938e-05
4.05377e-05
4.00094e-05
3.69328e-05
4.20256e-05
4.57632e-05
4.86729e-05
5.10792e-05
5.30431e-05
5.46247e-05
5.58809e-05
5.68646e-05
5.76223e-05
5.81943e-05
5.86151e-05
5.89132e-05
5.91126e-05
5.9233e-05
5.92906e-05
5.92987e-05
5.92672e-05
6.01318e-06
1.66619e-05
1.87974e-05
2.03972e-05
2.19478e-05
2.33977e-05
2.4936e-05
2.65636e-05
2.81933e-05
2.98224e-05
3.14277e-05
3.29947e-05
3.45171e-05
3.59932e-05
3.74234e-05
3.88094e-05
4.01535e-05
4.14584e-05
4.27273e-05
4.39641e-05
4.51733e-05
4.63605e-05
4.75328e-05
4.86911e-05
4.98252e-05
5.09357e-05
5.20241e-05
5.30919e-05
5.41404e-05
5.51711e-05
5.61853e-05
5.71842e-05
5.81691e-05
5.91413e-05
6.01019e-05
6.10521e-05
6.19931e-05
6.29259e-05
6.38517e-05
6.47713e-05
6.56858e-05
6.65961e-05
6.7503e-05
6.84072e-05
6.93096e-05
7.02108e-05
7.11115e-05
7.20121e-05
7.29133e-05
7.38155e-05
7.4719e-05
7.56242e-05
7.65314e-05
7.74407e-05
7.83523e-05
7.92662e-05
8.01825e-05
8.11013e-05
8.20224e-05
8.29457e-05
8.38712e-05
8.47985e-05
8.57275e-05
8.66577e-05
8.75888e-05
8.85204e-05
8.94519e-05
9.03828e-05
9.13126e-05
9.22406e-05
9.3166e-05
9.40882e-05
9.50061e-05
9.59189e-05
9.68257e-05
9.77254e-05
9.86169e-05
9.94991e-05
0.000100371
0.000101231
0.000102078
0.00010291
0.000103728
0.000104529
0.000105314
0.000106082
0.000106835
0.000107575
0.000108307
0.000109022
0.000109706
0.000110359
0.000110977
0.000111559
0.000112104
0.00011261
0.000113074
0.000113494
0.00011387
0.000114199
0.00011448
0.000114711
0.000114891
0.000115019
0.000115094
0.000115115
0.000115082
0.000114995
0.000114853
0.000114659
0.000114412
0.000114113
0.000113764
0.000113367
0.000112923
0.000112436
0.000111908
0.000111343
0.000110742
0.00011011
0.00010945
0.000108767
0.000108063
0.000107343
0.00010661
0.000105869
0.000105122
0.000104373
0.000103626
0.000102882
0.000102146
0.00010142
0.000100704
9.99967e-05
9.92883e-05
9.86365e-05
9.80199e-05
9.74236e-05
9.68455e-05
9.62844e-05
9.57399e-05
9.52111e-05
9.46966e-05
9.41947e-05
9.37039e-05
9.3222e-05
9.27509e-05
9.22663e-05
9.18188e-05
9.1375e-05
9.09318e-05
9.0488e-05
9.00417e-05
8.95896e-05
8.91306e-05
8.86627e-05
8.81833e-05
8.76909e-05
8.71837e-05
8.66621e-05
8.61243e-05
8.55706e-05
8.49995e-05
8.4408e-05
8.38012e-05
8.31758e-05
8.25322e-05
8.18736e-05
8.11984e-05
8.05103e-05
7.98107e-05
7.90983e-05
7.83879e-05
7.76561e-05
7.68913e-05
7.62199e-05
7.51373e-05
7.46968e-05
7.44688e-05
7.36531e-05
9.00258e-06
5.48321e-05
0.000103054
0.000134086
0.00015177
0.000162616
0.000170445
0.00017742
0.000184568
0.000192177
0.000200278
0.000208819
0.000217722
0.000226911
0.000236315
0.000245873
0.000255526
0.000265222
0.000274913
0.000284555
0.00029411
0.000303545
0.000312839
0.000321994
0.000331012
0.000339889
0.000348624
0.000357214
0.000365657
0.000373955
0.000382109
0.000390121
0.000397995
0.000405736
0.00041335
0.000420844
0.000428225
0.000435504
0.000442688
0.000449787
0.000456813
0.000463777
0.000470689
0.00047756
0.000484403
0.000491229
0.000498049
0.000504875
0.000511718
0.000518589
0.000525499
0.000532458
0.000539476
0.000546564
0.00055373
0.000560983
0.000568331
0.000575783
0.000583347
0.00059103
0.00059884
0.000606782
0.000614863
0.00062309
0.000631467
0.00064
0.000648694
0.000657552
0.000666577
0.000675774
0.000685143
0.000694686
0.000704402
0.000714289
0.000724345
0.000734564
0.000744939
0.000755463
0.000766122
0.000776902
0.000787784
0.000798745
0.000809758
0.000820789
0.000831796
0.00084273
0.000853527
0.000864111
0.000874233
0.000884019
0.000893664
0.000903179
0.000912543
0.000921732
0.000930718
0.000939471
0.000947962
0.000956159
0.000964032
0.000971547
0.000978674
0.00098538
0.000991636
0.000997411
0.00100268
0.00100741
0.00101159
0.00101519
0.0010182
0.00102061
0.00102239
0.00102356
0.00102411
0.00102404
0.00102336
0.00102208
0.00102021
0.00101779
0.00101482
0.00101134
0.00100738
0.00100295
0.000998098
0.000992854
0.00098725
0.00098132
0.000975098
0.000968618
0.000961914
0.000955014
0.000947944
0.000940723
0.000933351
0.000925804
0.000918023
0.000909863
0.000901956
0.000894265
0.000886782
0.000879517
0.00087248
0.000865682
0.000859126
0.000852813
0.000846738
0.000840884
0.00083529
0.000829593
0.000823597
0.000817702
0.000811934
0.000806288
0.000800763
0.000795351
0.000790048
0.000784847
0.000779738
0.000774716
0.00076977
0.0007649
0.000760109
0.000755395
0.000750757
0.000746189
0.000741716
0.000737334
0.000733053
0.000728897
0.00072488
0.000721029
0.000717387
0.000713937
0.000710826
0.000707964
0.000705186
0.00070265
0.000698808
0.000692521
0.000685225
0.00067481
1.10658e-05
8.59844e-05
0.000165012
0.0002221
0.000261752
0.000289961
0.00031148
0.000329607
0.000346379
0.000362896
0.000379682
0.000396931
0.000414673
0.000432861
0.000451413
0.000470241
0.000489254
0.00050837
0.000527512
0.000546613
0.000565617
0.000584478
0.000603162
0.000621644
0.000639906
0.000657932
0.00067571
0.000693229
0.000710483
0.000727468
0.000744184
0.000760633
0.000776819
0.00079275
0.000808435
0.000823886
0.000839115
0.000854139
0.000868975
0.00088364
0.000898154
0.000912538
0.000926814
0.000941002
0.000955126
0.000969209
0.000983272
0.000997339
0.00101143
0.00102557
0.00103978
0.00105409
0.0010685
0.00108304
0.00109773
0.00111259
0.00112763
0.00114287
0.00115832
0.00117401
0.00118993
0.00120611
0.00122255
0.00123928
0.00125628
0.00127359
0.00129119
0.0013091
0.00132733
0.00134587
0.00136472
0.0013839
0.00140339
0.00142319
0.00144329
0.00146367
0.00148433
0.00150524
0.00152638
0.00154772
0.00156922
0.00159083
0.00161252
0.00163423
0.00165589
0.00167742
0.00169876
0.00171982
0.00174028
0.0017604
0.00178027
0.00179988
0.00181919
0.00183816
0.00185672
0.00187482
0.0018924
0.00190939
0.00192574
0.00194136
0.0019562
0.0019702
0.00198328
0.00199538
0.00200645
0.00201643
0.00202528
0.00203294
0.00203938
0.00204457
0.00204849
0.00205113
0.00205247
0.00205253
0.00205132
0.00204886
0.00204517
0.0020403
0.00203429
0.00202719
0.00201906
0.00200996
0.00199995
0.00198911
0.00197749
0.00196518
0.00195223
0.00193872
0.00192471
0.00191026
0.00189542
0.00188024
0.00186475
0.00184897
0.00183293
0.00181659
0.00180034
0.00178439
0.00176871
0.00175331
0.0017382
0.00172338
0.00170886
0.00169463
0.00168066
0.00166693
0.00165303
0.00163906
0.00162506
0.00161117
0.00159742
0.00158378
0.00157025
0.00155681
0.00154345
0.00153016
0.00151693
0.00150375
0.00149061
0.0014775
0.00146444
0.00145143
0.00143848
0.00142559
0.0014128
0.00140015
0.00138766
0.00137538
0.00136339
0.00135171
0.00134053
0.00132984
0.00131985
0.00131062
0.00130206
0.00129409
0.0012858
0.00127622
0.00126559
0.00124998
1.25721e-05
0.000108389
0.000212016
0.000292282
0.000352224
0.000397638
0.000433539
0.000463714
0.000490794
0.000516453
0.000541675
0.000566979
0.000592597
0.000618597
0.000644958
0.000671617
0.00069849
0.000725491
0.000752537
0.000779551
0.000806468
0.000833229
0.000859788
0.000886105
0.000912148
0.00093789
0.000963309
0.000988389
0.00101312
0.00103749
0.0010615
0.00108515
0.00110844
0.00113138
0.00115398
0.00117625
0.00119822
0.0012199
0.00124131
0.00126247
0.00128342
0.00130417
0.00132476
0.00134522
0.00136557
0.00138584
0.00140607
0.00142629
0.00144652
0.0014668
0.00148716
0.00150762
0.00152821
0.00154895
0.00156988
0.00159102
0.00161238
0.00163399
0.00165587
0.00167803
0.0017005
0.00172329
0.00174641
0.00176988
0.0017937
0.00181788
0.00184244
0.00186737
0.00189269
0.00191838
0.00194446
0.00197092
0.00199775
0.00202494
0.00205249
0.00208036
0.00210855
0.00213702
0.00216575
0.00219469
0.00222381
0.00225306
0.00228237
0.00231169
0.00234095
0.00237007
0.00239899
0.00242761
0.00245572
0.00248346
0.00251088
0.00253796
0.00256463
0.00259085
0.00261652
0.00264159
0.00266595
0.00268954
0.00271225
0.00273401
0.00275472
0.00277428
0.00279262
0.00280963
0.00282525
0.00283939
0.00285198
0.00286295
0.00287226
0.00287984
0.00288568
0.00288974
0.00289201
0.00289249
0.0028912
0.00288815
0.00288338
0.00287694
0.00286889
0.00285928
0.0028482
0.00283572
0.00282194
0.00280692
0.00279078
0.0027736
0.00275548
0.0027365
0.00271676
0.00269634
0.00267531
0.00265376
0.00263174
0.00260933
0.00258661
0.00256363
0.00254051
0.00251754
0.00249476
0.00247218
0.0024498
0.00242763
0.00240565
0.00238389
0.0023622
0.00234041
0.00231856
0.0022967
0.00227486
0.00225309
0.00223139
0.00220976
0.00218817
0.0021666
0.00214506
0.00212354
0.00210203
0.00208053
0.00205902
0.00203752
0.00201604
0.00199461
0.00197326
0.00195199
0.00193086
0.00190996
0.00188933
0.00186903
0.00184926
0.00183001
0.00181159
0.00179414
0.00177787
0.0017629
0.00174931
0.00173709
0.00172581
0.00171509
0.00170449
0.00169122
1.40245e-05
0.000123013
0.000248054
0.000349365
0.000428116
0.000489841
0.000539682
0.00058172
0.000618959
0.000653481
0.000686637
0.000719253
0.000751788
0.000784468
0.000817376
0.00085051
0.000883825
0.000917253
0.000950721
0.000984154
0.00101748
0.00105064
0.00108358
0.00111625
0.0011486
0.00118061
0.00121225
0.00124349
0.00127431
0.00130472
0.00133469
0.00136423
0.00139334
0.00142202
0.00145029
0.00147817
0.00150566
0.00153279
0.00155958
0.00158606
0.00161226
0.00163821
0.00166393
0.00168947
0.00171486
0.00174013
0.00176531
0.00179045
0.00181558
0.00184073
0.00186594
0.00189124
0.00191666
0.00194223
0.00196799
0.00199395
0.00202015
0.00204661
0.00207334
0.00210038
0.00212773
0.00215542
0.00218345
0.00221185
0.00224061
0.00226976
0.00229929
0.00232921
0.00235953
0.00239023
0.00242132
0.0024528
0.00248466
0.00251687
0.00254944
0.00258234
0.00261554
0.00264902
0.00268276
0.0027167
0.00275081
0.00278504
0.00281935
0.00285366
0.00288792
0.00292206
0.00295601
0.00298964
0.00302285
0.00305573
0.00308827
0.00312046
0.00315221
0.00318347
0.00321415
0.00324416
0.00327342
0.00330181
0.00332924
0.00335561
0.00338081
0.00340472
0.00342724
0.00344826
0.00346768
0.0034854
0.00350133
0.00351538
0.00352748
0.00353756
0.00354558
0.00355149
0.00355527
0.0035569
0.00355639
0.00355376
0.00354903
0.00354226
0.0035335
0.00352281
0.00351029
0.00349601
0.00348006
0.00346256
0.0034436
0.00342329
0.00340173
0.00337903
0.0033553
0.00333063
0.00330513
0.00327889
0.00325199
0.00322454
0.00319662
0.00316833
0.00313977
0.00311103
0.00308226
0.00305352
0.00302482
0.00299617
0.00296753
0.00293879
0.00290994
0.00288098
0.00285192
0.0028228
0.00279365
0.00276447
0.00273529
0.00270607
0.00267682
0.00264752
0.00261815
0.00258875
0.00255931
0.00252984
0.00250034
0.0024708
0.00244127
0.00241181
0.00238245
0.00235321
0.00232415
0.00229544
0.00226712
0.00223924
0.00221216
0.00218596
0.00216092
0.00213725
0.00211522
0.00209507
0.00207704
0.0020613
0.00204784
0.0020367
0.00202739
0.00201851
1.52557e-05
0.000133182
0.000275721
0.000395509
0.000491358
0.000568251
0.000631287
0.000684692
0.00073171
0.000774705
0.000815319
0.000854636
0.000893334
0.000931807
0.000970262
0.00100879
0.00104739
0.00108604
0.0011247
0.00116329
0.00120176
0.00124003
0.00127807
0.00131581
0.00135321
0.00139022
0.00142683
0.001463
0.00149871
0.00153394
0.00156869
0.00160295
0.00163672
0.00167001
0.00170283
0.00173518
0.00176709
0.00179857
0.00182965
0.00186036
0.00189073
0.00192079
0.00195057
0.0019801
0.00200943
0.0020386
0.00206763
0.00209657
0.00212546
0.00215433
0.00218322
0.00221217
0.00224121
0.00227038
0.0022997
0.00232921
0.00235892
0.00238888
0.00241909
0.00244959
0.00248039
0.0025115
0.00254294
0.00257472
0.00260685
0.00263934
0.00267219
0.00270541
0.002739
0.00277295
0.00280726
0.00284193
0.00287694
0.00291229
0.00294796
0.00298394
0.00302019
0.00305671
0.00309346
0.00313041
0.00316753
0.00320477
0.00324208
0.00327943
0.00331675
0.003354
0.00339112
0.00342788
0.00346437
0.00350061
0.00353657
0.00357223
0.00360752
0.00364237
0.00367668
0.00371038
0.00374337
0.00377553
0.00380676
0.00383694
0.00386595
0.00389367
0.00391997
0.00394472
0.00396781
0.0039891
0.0040085
0.00402589
0.00404118
0.00405427
0.0040651
0.0040736
0.00407973
0.00408346
0.00408477
0.00408367
0.00408018
0.00407434
0.00406618
0.00405578
0.00404321
0.00402856
0.00401192
0.0039934
0.0039731
0.00395113
0.0039276
0.00390264
0.00387635
0.00384885
0.00382024
0.00379063
0.00376013
0.00372884
0.00369685
0.00366428
0.00363121
0.00359774
0.00356395
0.00352991
0.00349565
0.00346115
0.00342642
0.00339144
0.00335621
0.00332075
0.00328509
0.00324926
0.00321327
0.00317715
0.00314089
0.0031045
0.00306797
0.00303128
0.00299444
0.00295749
0.00292045
0.00288333
0.00284614
0.00280889
0.00277157
0.00273436
0.00269729
0.00266036
0.00262358
0.00258731
0.00255158
0.00251653
0.00248244
0.00244951
0.00241801
0.00238825
0.00236056
0.00233528
0.00231281
0.00229354
0.00227779
0.00226589
0.00225762
0.00225249
1.62656e-05
0.000140331
0.000296752
0.000432263
0.000543244
0.000633913
0.000709159
0.000773222
0.000829475
0.000880471
0.000928063
0.000973544
0.00101778
0.00106134
0.00110454
0.00114757
0.00119052
0.0012334
0.00127621
0.00131889
0.00136141
0.00140371
0.00144573
0.00148743
0.00152876
0.00156967
0.00161015
0.00165015
0.00168965
0.00172864
0.00176709
0.00180502
0.0018424
0.00187926
0.00191558
0.00195139
0.0019867
0.00202153
0.0020559
0.00208985
0.00212339
0.00215656
0.00218941
0.00222195
0.00225423
0.00228629
0.00231817
0.0023499
0.00238153
0.0024131
0.00244464
0.00247619
0.0025078
0.00253948
0.00257128
0.00260322
0.00263533
0.00266765
0.00270018
0.00273296
0.002766
0.00279932
0.00283292
0.00286683
0.00290105
0.00293558
0.00297044
0.00300561
0.00304111
0.00307693
0.00311307
0.00314951
0.00318627
0.00322331
0.00326064
0.00329824
0.0033361
0.00337419
0.0034125
0.00345101
0.00348968
0.0035285
0.00356741
0.0036064
0.00364541
0.00368441
0.00372333
0.00376204
0.0038006
0.00383904
0.00387733
0.00391545
0.00395334
0.00399091
0.0040281
0.00406482
0.00410095
0.0041364
0.00417105
0.00420477
0.00423743
0.0042689
0.00429902
0.00432767
0.00435468
0.00437992
0.00440326
0.00442455
0.00444367
0.00446052
0.00447498
0.00448697
0.00449641
0.00450325
0.00450746
0.00450901
0.00450791
0.00450417
0.00449783
0.00448893
0.00447756
0.00446377
0.00444767
0.00442935
0.00440892
0.00438649
0.00436218
0.0043361
0.00430838
0.00427913
0.00424846
0.00421649
0.00418334
0.00414911
0.00411391
0.00407784
0.00404098
0.00400345
0.0039653
0.00392659
0.00388738
0.00384768
0.00380752
0.0037669
0.00372586
0.00368443
0.00364263
0.00360051
0.00355808
0.00351537
0.00347239
0.00342914
0.00338564
0.00334187
0.00329783
0.00325358
0.00320918
0.00316465
0.00312
0.00307524
0.00303031
0.00298551
0.00294087
0.00289644
0.00285229
0.00280867
0.0027657
0.00272358
0.00268256
0.00264289
0.00260488
0.00256889
0.00253532
0.00250461
0.00247728
0.00245393
0.00243512
0.00242145
0.00241298
0.00240983
1.70837e-05
0.000145183
0.000312288
0.000460803
0.000584834
0.000687715
0.000773997
0.00084783
0.000912625
0.000971041
0.00102508
0.00107619
0.0011254
0.00117341
0.00122067
0.00126746
0.00131394
0.0013602
0.00140625
0.0014521
0.00149771
0.00154304
0.00158806
0.00163272
0.00167697
0.00172078
0.00176411
0.00180693
0.00184922
0.00189096
0.00193213
0.00197273
0.00201274
0.00205218
0.00209105
0.00212936
0.00216711
0.00220434
0.00224106
0.0022773
0.00231309
0.00234846
0.00238344
0.00241806
0.00245238
0.00248642
0.00252022
0.00255383
0.00258729
0.00262063
0.0026539
0.00268713
0.00272036
0.00275363
0.00278696
0.00282039
0.00285395
0.00288766
0.00292155
0.00295563
0.00298993
0.00302447
0.00305924
0.00309427
0.00312956
0.00316512
0.00320095
0.00323705
0.00327343
0.00331008
0.00334699
0.00338417
0.00342161
0.0034593
0.00349723
0.00353541
0.00357381
0.00361244
0.00365127
0.00369031
0.00372952
0.00376891
0.00380844
0.0038481
0.00388787
0.0039277
0.00396754
0.00400737
0.00404723
0.00408715
0.00412712
0.0041671
0.00420705
0.0042469
0.00428658
0.00432599
0.00436505
0.00440365
0.00444166
0.00447895
0.00451538
0.0045508
0.00458505
0.00461796
0.00464937
0.00467911
0.004707
0.0047329
0.00475663
0.00477805
0.00479703
0.00481344
0.00482717
0.00483813
0.00484627
0.00485153
0.00485389
0.00485334
0.0048499
0.0048436
0.00483448
0.00482263
0.00480812
0.00479104
0.00477149
0.00474959
0.00472545
0.00469919
0.00467093
0.0046408
0.0046089
0.00457538
0.00454033
0.00450387
0.00446612
0.00442717
0.00438713
0.00434608
0.00430411
0.00426129
0.00421766
0.00417328
0.00412818
0.00408242
0.00403602
0.00398902
0.00394148
0.00389342
0.00384488
0.0037959
0.00374649
0.00369668
0.00364648
0.00359587
0.00354483
0.00349352
0.00344197
0.00339021
0.00333828
0.00328622
0.00323403
0.00318192
0.00312996
0.00307824
0.00302688
0.00297608
0.00292601
0.00287687
0.00282893
0.00278248
0.00273784
0.00269541
0.00265565
0.00261906
0.00258629
0.00255804
0.00253509
0.00251825
0.00250784
0.00250438
1.77367e-05
0.000148185
0.000323152
0.000482074
0.000617042
0.000730466
0.000826476
0.000909048
0.000981553
0.0010467
0.00110656
0.00116273
0.00121633
0.00126818
0.00131885
0.00136871
0.00141799
0.00146683
0.00151532
0.00156347
0.00161129
0.00165876
0.00170585
0.00175253
0.00179875
0.0018445
0.00188973
0.00193441
0.00197853
0.00202205
0.00206498
0.0021073
0.002149
0.00219008
0.00223055
0.00227042
0.0023097
0.0023484
0.00238656
0.00242419
0.00246133
0.002498
0.00253423
0.00257007
0.00260555
0.00264071
0.00267558
0.00271022
0.00274466
0.00277894
0.0028131
0.00284717
0.00288121
0.00291523
0.00294928
0.00298339
0.00301758
0.00305188
0.00308632
0.00312091
0.00315568
0.00319064
0.00322579
0.00326116
0.00329674
0.00333255
0.00336859
0.00340485
0.00344134
0.00347805
0.00351499
0.00355216
0.00358954
0.00362713
0.00366495
0.00370297
0.0037412
0.00377964
0.00381829
0.00385715
0.00389621
0.00393549
0.00397497
0.00401465
0.00405452
0.00409458
0.00413478
0.0041752
0.00421588
0.00425685
0.0042981
0.0043396
0.00438132
0.00442321
0.0044652
0.00450721
0.00454914
0.0045909
0.00463236
0.00467338
0.00471382
0.00475351
0.00479226
0.00482991
0.00486624
0.00490106
0.00493418
0.00496539
0.0049945
0.00502133
0.00504569
0.00506743
0.00508638
0.00510243
0.00511547
0.00512542
0.00513224
0.00513587
0.00513632
0.00513359
0.00512771
0.00511873
0.00510673
0.00509179
0.005074
0.00505348
0.00503033
0.00500468
0.00497665
0.00494637
0.00491395
0.00487952
0.00484321
0.00480513
0.00476541
0.00472414
0.00468142
0.00463737
0.00459206
0.00454559
0.00449802
0.00444941
0.00439983
0.00434932
0.00429795
0.00424577
0.00419282
0.00413916
0.00408483
0.00402987
0.00397431
0.00391821
0.00386157
0.00380442
0.00374676
0.00368872
0.00363033
0.00357167
0.00351278
0.00345371
0.00339454
0.0033354
0.0032764
0.00321765
0.0031593
0.00310152
0.00304451
0.00298849
0.00293373
0.00288052
0.00282922
0.00278023
0.00273403
0.0026912
0.00265241
0.00261847
0.00259027
0.00256879
0.00255457
0.00254838
1.82454e-05
0.000149655
0.000329993
0.000496869
0.000640673
0.000762913
0.000867243
0.000957401
0.00103666
0.00110772
0.00117271
0.00123326
0.00129061
0.00134568
0.0013991
0.00145134
0.0015027
0.00155338
0.0016035
0.00165314
0.00170231
0.00175104
0.00179931
0.00184709
0.00189436
0.0019411
0.00198728
0.00203287
0.00207786
0.00212223
0.00216595
0.00220904
0.00225147
0.00229325
0.00233438
0.00237488
0.00241476
0.00245403
0.00249272
0.00253084
0.00256844
0.00260553
0.00264216
0.00267836
0.00271416
0.00274961
0.00278474
0.0028196
0.00285423
0.00288867
0.00292296
0.00295713
0.00299123
0.00302529
0.00305935
0.00309343
0.00312758
0.0031618
0.00319613
0.00323059
0.0032652
0.00329997
0.0033349
0.00337002
0.00340533
0.00344083
0.00347652
0.00351241
0.00354849
0.00358477
0.00362124
0.0036579
0.00369474
0.00373178
0.003769
0.00380641
0.00384402
0.00388182
0.00391984
0.00395808
0.00399656
0.00403528
0.00407427
0.00411354
0.0041531
0.00419296
0.00423321
0.00427392
0.00431514
0.00435689
0.00439918
0.004442
0.00448533
0.00452913
0.00457334
0.0046179
0.00466272
0.0047077
0.00475272
0.00479765
0.00484233
0.00488659
0.00493023
0.00497303
0.00501478
0.00505524
0.00509419
0.00513138
0.0051666
0.0051996
0.00523017
0.00525807
0.00528311
0.00530513
0.00532399
0.00533956
0.00535174
0.00536048
0.00536573
0.00536746
0.00536568
0.00536044
0.00535179
0.00533981
0.00532458
0.0053062
0.00528479
0.00526047
0.00523335
0.00520357
0.00517126
0.00513655
0.00509955
0.00506041
0.00501924
0.00497616
0.00493128
0.00488471
0.00483656
0.00478691
0.00473586
0.00468347
0.00462984
0.00457503
0.00451911
0.00446213
0.00440418
0.00434529
0.00428554
0.00422498
0.00416365
0.00410161
0.00403891
0.00397557
0.00391164
0.00384722
0.00378237
0.00371716
0.00365166
0.00358595
0.00352012
0.00345429
0.00338859
0.00332314
0.0032581
0.00319364
0.00312998
0.00306734
0.00300598
0.00294621
0.00288837
0.00283287
0.0027802
0.00273094
0.00268578
0.00264556
0.00261123
0.00258386
0.00256414
0.00255299
1.86254e-05
0.000149841
0.000333343
0.00050587
0.000656445
0.000785735
0.000896894
0.000993381
0.00107833
0.00115437
0.00122364
0.00128782
0.0013482
0.00140576
0.00146122
0.00151511
0.00156779
0.00161951
0.00167046
0.00172074
0.00177041
0.0018195
0.00186802
0.00191598
0.00196335
0.00201013
0.00205629
0.00210182
0.0021467
0.00219092
0.00223446
0.00227733
0.00231952
0.00236102
0.00240186
0.00244203
0.00248156
0.00252046
0.00255876
0.00259647
0.00263363
0.00267028
0.00270644
0.00274215
0.00277745
0.00281238
0.00284699
0.00288131
0.00291539
0.00294927
0.00298298
0.00301658
0.00305009
0.00308356
0.00311702
0.0031505
0.00318404
0.00321765
0.00325137
0.00328521
0.00331919
0.00335333
0.00338764
0.00342212
0.00345678
0.00349162
0.00352664
0.00356185
0.00359724
0.0036328
0.00366854
0.00370445
0.00374052
0.00377677
0.00381318
0.00384977
0.00388653
0.0039235
0.00396067
0.00399807
0.00403572
0.00407366
0.00411191
0.00415051
0.00418949
0.00422899
0.00426912
0.00430996
0.00435155
0.00439393
0.00443712
0.00448112
0.00452595
0.00457156
0.00461792
0.00466498
0.00471267
0.0047609
0.00480955
0.0048585
0.00490758
0.00495663
0.00500543
0.00505373
0.00510129
0.00514785
0.00519314
0.00523689
0.00527883
0.00531868
0.00535618
0.005391
0.00542293
0.00545173
0.00547722
0.00549924
0.00551765
0.00553233
0.00554322
0.00555026
0.00555344
0.00555278
0.0055483
0.00554007
0.00552817
0.0055127
0.00549376
0.00547147
0.00544595
0.00541734
0.00538577
0.00535138
0.00531429
0.00527466
0.00523259
0.00518824
0.00514171
0.00509314
0.00504263
0.00499029
0.00493622
0.00488053
0.00482331
0.00476463
0.00470458
0.00464325
0.0045807
0.00451701
0.00445226
0.0043865
0.00431981
0.00425224
0.00418387
0.00411475
0.00404495
0.00397455
0.00390363
0.00383228
0.00376059
0.00368865
0.00361657
0.00354446
0.00347247
0.00340074
0.00332943
0.00325872
0.00318881
0.00311994
0.00305237
0.00298638
0.00292232
0.00286059
0.00280163
0.00274603
0.00269444
0.0026477
0.00260673
0.00257263
0.00254616
0.0025283
1.88895e-05
0.000148943
0.000333655
0.000509674
0.000664996
0.000799533
0.000915949
0.00101739
0.00110682
0.00118677
0.00125936
0.00132626
0.00138881
0.00144803
0.0015047
0.00155939
0.00161255
0.00166446
0.00171534
0.00176534
0.00181457
0.00186306
0.00191087
0.001958
0.00200447
0.00205026
0.00209537
0.0021398
0.00218353
0.00222656
0.00226888
0.0023105
0.00235141
0.00239163
0.00243115
0.00247
0.0025082
0.00254576
0.00258271
0.00261908
0.0026549
0.00269021
0.00272504
0.00275944
0.00279344
0.00282708
0.00286041
0.00289347
0.00292632
0.00295898
0.0029915
0.00302394
0.00305631
0.00308867
0.00312105
0.00315348
0.003186
0.00321862
0.00325138
0.00328429