/*--------------------------------*- C++ -*----------------------------------*\
| =========                 |                                                 |
| \\      /  F ield         | OpenFOAM: The Open Source CFD Toolbox           |
|  \\    /   O peration     | Version:  2.2.x                                 |
|   \\  /    A nd           | Web:      www.OpenFOAM.org                      |
|    \\/     M anipulation  |                                                 |
\*---------------------------------------------------------------------------*/
FoamFile
{
    version     2.0;
    format      ascii;
    class       volScalarField;
    location    "450";
    object      p;
}
// * * * * * * * * * * * * * * * * * * * * * * * * * * * * * * * * * * * * * //

dimensions      [0 2 -2 0 0 0 0];

internalField   nonuniform List<scalar> 
12225
(
-3.09026
-5.79516
-6.64328
-6.88318
-7.04773
-7.18957
-7.30422
-7.39971
-7.4845
-7.56286
-7.63678
-7.70755
-7.77621
-7.84357
-7.91011
-7.97516
-8.03583
-8.00814
-6.87875
-7.2337
-7.34494
-7.29992
-7.30733
-7.35683
-7.41601
-7.47662
-7.53855
-7.60147
-7.6647
-7.7279
-7.79111
-7.85448
-7.91821
-7.9826
-8.05264
-8.17331
-6.72584
-6.57092
-6.7731
-6.90812
-7.03197
-7.15823
-7.2716
-7.37058
-7.45968
-7.54204
-7.61934
-7.69285
-7.76366
-7.83274
-7.90106
-7.97021
-8.04556
-8.14601
-6.64134
-6.63036
-6.90328
-7.07195
-7.18425
-7.28594
-7.37615
-7.4554
-7.528
-7.59682
-7.66314
-7.72776
-7.79136
-7.85461
-7.91832
-7.98404
-8.05567
-8.14206
-6.67763
-6.72678
-6.93943
-7.07642
-7.16962
-7.25945
-7.34506
-7.42403
-7.49825
-7.56942
-7.63827
-7.70532
-7.77108
-7.83615
-7.9013
-7.96779
-8.03786
-8.11382
-6.75161
-6.80216
-6.96294
-7.08691
-7.18026
-7.26985
-7.3555
-7.43479
-7.50898
-7.57964
-7.64763
-7.71354
-7.77796
-7.84146
-7.90473
-7.9686
-8.03406
-8.10084
-6.81694
-6.85907
-6.98636
-7.10061
-7.19229
-7.27857
-7.36095
-7.43785
-7.51019
-7.57926
-7.64584
-7.71045
-7.77357
-7.83564
-7.89712
-7.95837
-8.01955
-8.07917
-6.86814
-6.90497
-7.01173
-7.11615
-7.20414
-7.2869
-7.36632
-7.44126
-7.51222
-7.58016
-7.6457
-7.70928
-7.77127
-7.83199
-7.8917
-7.95051
-8.00822
-8.06307
-6.91153
-6.94466
-7.03566
-7.13083
-7.21481
-7.2943
-7.37101
-7.44405
-7.5136
-7.58033
-7.64476
-7.70721
-7.76798
-7.82728
-7.88523
-7.94176
-7.99651
-8.04777
-6.95663
-6.98602
-7.06247
-7.1479
-7.22709
-7.30288
-7.37651
-7.44726
-7.51504
-7.58026
-7.64328
-7.70433
-7.76361
-7.82121
-7.87714
-7.93122
-7.98301
-8.03105
-7.00263
-7.02817
-7.09187
-7.16749
-7.24114
-7.31272
-7.38285
-7.45088
-7.5165
-7.57986
-7.64114
-7.70049
-7.75797
-7.81359
-7.86728
-7.91878
-7.96768
-8.01281
-7.04853
-7.07035
-7.12322
-7.18934
-7.25683
-7.32376
-7.39002
-7.45492
-7.51799
-7.57912
-7.63834
-7.69566
-7.75105
-7.80445
-7.85572
-7.90459
-7.95073
-7.99327
-7.09318
-7.11159
-7.15548
-7.21275
-7.27379
-7.33573
-7.39781
-7.45923
-7.51938
-7.57794
-7.63477
-7.68976
-7.74281
-7.7938
-7.84254
-7.88882
-7.93237
-7.97257
-7.13516
-7.15059
-7.18718
-7.23657
-7.29124
-7.34805
-7.40577
-7.46347
-7.5204
-7.57609
-7.63025
-7.68269
-7.73322
-7.78167
-7.82787
-7.87165
-7.9128
-7.9509
-7.17263
-7.18563
-7.21643
-7.25912
-7.30787
-7.35968
-7.41306
-7.46696
-7.52052
-7.57318
-7.62452
-7.67427
-7.72219
-7.7681
-7.81184
-7.85325
-7.89222
-7.92844
-7.20322
-7.21434
-7.24075
-7.2781
-7.32177
-7.36906
-7.41842
-7.46869
-7.51898
-7.56863
-7.61717
-7.66425
-7.70963
-7.7531
-7.79452
-7.83378
-7.87078
-7.90531
-7.22365
-7.23345
-7.25683
-7.29036
-7.33018
-7.37389
-7.41993
-7.46712
-7.51455
-7.56152
-7.60754
-7.65223
-7.69532
-7.73663
-7.77603
-7.81343
-7.84876
-7.88187
-7.22888
-7.23804
-7.25999
-7.29166
-7.32954
-7.3713
-7.41541
-7.46071
-7.50629
-7.55146
-7.59571
-7.63867
-7.6801
-7.71981
-7.75769
-7.79367
-7.82771
-7.85967
-7.21867
-7.22783
-7.2499
-7.28178
-7.31978
-7.36147
-7.40532
-7.4502
-7.49522
-7.53971
-7.5832
-7.62536
-7.66595
-7.70481
-7.74187
-7.77707
-7.81039
-7.84172
-7.1974
-7.20698
-7.23036
-7.26415
-7.30398
-7.34708
-7.39193
-7.4375
-7.48293
-7.5276
-7.57109
-7.61309
-7.65341
-7.69194
-7.7286
-7.76337
-7.79626
-7.82713
-7.16829
-7.17841
-7.20415
-7.24147
-7.28456
-7.33016
-7.37694
-7.42401
-7.47058
-7.51606
-7.5601
-7.60247
-7.64302
-7.68166
-7.71835
-7.7531
-7.78593
-7.81676
-7.13366
-7.14394
-7.17312
-7.21578
-7.26329
-7.31203
-7.36127
-7.4103
-7.45834
-7.50489
-7.54968
-7.59257
-7.63346
-7.67229
-7.70906
-7.74376
-7.77644
-7.80698
-7.09556
-7.10455
-7.13869
-7.18902
-7.24198
-7.29434
-7.3465
-7.39794
-7.44784
-7.49583
-7.54177
-7.58557
-7.62718
-7.66658
-7.70376
-7.73878
-7.77169
-7.80246
-7.05588
-7.06047
-7.10166
-7.16172
-7.22018
-7.27605
-7.33113
-7.38472
-7.43604
-7.48499
-7.53163
-7.57596
-7.61797
-7.65767
-7.69507
-7.73018
-7.76299
-7.79326
-7.01585
-7.01201
-7.06715
-7.13924
-7.20215
-7.26186
-7.32119
-7.37825
-7.43215
-7.48305
-7.53119
-7.57666
-7.61951
-7.65983
-7.69766
-7.73304
-7.76602
-7.79657
-6.97283
-6.94343
-7.02855
-7.11624
-7.17823
-7.23622
-7.29515
-7.35209
-7.40615
-7.45766
-7.50675
-7.5534
-7.59756
-7.63925
-7.67849
-7.7152
-7.74921
-7.77981
-6.96675
-6.85177
-6.99098
-7.12094
-7.20321
-7.27326
-7.33793
-7.39593
-7.44858
-7.49756
-7.54363
-7.5871
-7.62815
-7.66694
-7.70357
-7.73804
-7.77022
-7.79979
-7.06409
-6.73273
-6.80796
-6.90946
-6.99999
-7.09487
-7.18501
-7.26555
-7.33789
-7.40383
-7.46433
-7.51997
-7.57129
-7.61878
-7.66285
-7.70378
-7.74156
-7.7755
-7.36286
-7.42775
-7.45987
-7.38578
-7.3514
-7.36256
-7.3907
-7.42445
-7.46171
-7.50123
-7.54159
-7.58173
-7.62105
-7.6592
-7.69604
-7.73161
-7.76598
-7.80033
-3.66852
-5.86215
-6.65953
-6.87873
-7.01231
-7.13058
-7.22723
-7.3063
-7.37478
-7.4364
-7.49269
-7.54449
-7.59245
-7.63712
-7.67896
-7.71854
-7.75656
-7.79785
-8.74736
-8.74792
-8.74975
-8.75212
-8.75455
-8.75711
-8.76017
-8.7642
-8.76928
-8.77534
-8.78239
-8.79045
-8.79952
-8.80959
-8.82063
-8.83259
-8.84542
-8.85905
-8.87344
-8.88851
-8.90421
-8.92048
-8.93724
-8.95438
-8.97184
-8.98959
-9.00757
-9.02576
-9.04411
-9.06259
-9.08118
-9.09984
-9.11856
-9.13729
-9.15603
-9.17476
-9.19345
-9.2121
-9.23067
-9.24916
-9.26753
-9.28578
-9.30388
-9.32179
-9.33949
-9.35695
-9.37412
-9.39096
-9.40743
-9.42347
-9.43902
-9.45403
-9.4684
-9.48207
-9.49494
-9.50692
-9.51789
-9.52774
-9.53635
-9.54358
-9.54928
-9.55329
-9.55545
-9.55556
-9.55343
-9.54884
-9.54157
-9.53138
-9.51803
-9.50125
-9.48076
-9.45627
-9.42748
-9.39408
-9.35575
-9.31217
-9.263
-9.20793
-9.1466
-9.07871
-9.00392
-8.92193
-8.83244
-8.73519
-8.62993
-8.51646
-8.39462
-8.26421
-8.12501
-7.9769
-7.81994
-7.6542
-7.47984
-7.29706
-7.10613
-6.90737
-6.70118
-6.48799
-6.26832
-6.04276
-5.81192
-5.5765
-5.33721
-5.09482
-4.85011
-4.6039
-4.35702
-4.11029
-3.86451
-3.62049
-3.37901
-3.14078
-2.9065
-2.6768
-2.45225
-2.23333
-2.02047
-1.81404
-1.6143
-1.42146
-1.23563
-1.05685
-0.885098
-0.720275
-0.562221
-0.410704
-0.265424
-0.126027
0.00788851
0.136771
0.261115
0.381457
0.498369
0.612458
0.724383
0.834839
0.944558
1.0543
1.16486
1.27705
1.39166
1.50954
1.63151
1.75844
1.89116
2.03053
2.17739
2.33252
2.49667
2.67054
2.85481
3.05005
3.25681
3.4755
3.70648
3.94998
4.20613
4.47491
4.75619
5.04974
5.35523
5.67211
5.99969
6.33726
6.68389
7.03847
7.3999
7.76687
8.13796
8.51177
8.88659
9.26082
9.63266
10.0009
10.3631
10.7171
11.065
11.4034
11.7367
12.0416
-8.74223
-8.74389
-8.74601
-8.74777
-8.74873
-8.74928
-8.75017
-8.75209
-8.7553
-8.75978
-8.76549
-8.77238
-8.78043
-8.78959
-8.7998
-8.81102
-8.82317
-8.83619
-8.85
-8.86454
-8.87974
-8.89552
-8.91181
-8.92853
-8.9456
-8.96299
-8.98064
-8.99851
-9.01655
-9.03474
-9.05304
-9.07142
-9.08984
-9.1083
-9.12676
-9.14521
-9.16363
-9.18199
-9.20029
-9.21851
-9.23663
-9.25461
-9.27245
-9.29012
-9.30758
-9.32481
-9.34176
-9.3584
-9.37468
-9.39055
-9.40595
-9.42083
-9.43511
-9.4487
-9.46153
-9.4735
-9.4845
-9.49442
-9.50314
-9.51053
-9.51645
-9.52074
-9.52323
-9.52374
-9.52208
-9.51803
-9.51138
-9.50191
-9.48935
-9.47346
-9.45396
-9.43057
-9.40299
-9.37091
-9.33401
-9.29198
-9.24449
-9.19121
-9.1318
-9.06595
-8.99333
-8.91362
-8.82654
-8.7318
-8.62917
-8.51845
-8.39947
-8.27194
-8.13561
-7.99039
-7.83632
-7.67349
-7.50202
-7.32209
-7.13396
-6.93793
-6.73435
-6.52365
-6.30633
-6.08293
-5.85408
-5.62042
-5.38266
-5.14153
-4.89783
-4.65234
-4.40589
-4.15928
-3.91332
-3.66882
-3.42655
-3.18726
-2.95164
-2.72033
-2.49393
-2.27296
-2.05785
-1.849
-1.64672
-1.45123
-1.26269
-1.08115
-0.906622
-0.739048
-0.578292
-0.424144
-0.276334
-0.134535
0.0016281
0.132585
0.258814
0.380837
0.499215
0.614551
0.727493
0.838737
0.949016
1.05909
1.16975
1.28179
1.39603
1.51328
1.6344
1.76025
1.89171
2.02966
2.17491
2.32828
2.49051
2.66232
2.84441
3.03737
3.24173
3.45796
3.68639
3.9273
4.18082
4.44695
4.72557
5.01645
5.3193
5.63358
5.95859
6.29362
6.63781
6.99004
7.34919
7.71403
8.08304
8.4549
8.82783
9.2004
9.57087
9.93862
10.3015
10.6563
11.0047
11.3435
11.6818
11.9854
-8.72848
-8.73288
-8.7381
-8.74119
-8.74216
-8.74235
-8.74277
-8.74404
-8.74645
-8.75009
-8.75496
-8.76104
-8.76828
-8.77664
-8.78606
-8.79647
-8.80782
-8.82004
-8.83306
-8.84681
-8.86121
-8.87622
-8.89174
-8.90771
-8.92408
-8.94079
-8.95778
-8.97502
-8.99246
-9.01006
-9.02779
-9.04562
-9.06351
-9.08145
-9.09941
-9.11737
-9.13532
-9.15322
-9.17108
-9.18886
-9.20655
-9.22413
-9.24157
-9.25886
-9.27595
-9.29283
-9.30944
-9.32577
-9.34176
-9.35736
-9.37252
-9.38717
-9.40126
-9.41469
-9.4274
-9.43928
-9.45023
-9.46015
-9.46892
-9.47641
-9.48249
-9.487
-9.48977
-9.49064
-9.48942
-9.48589
-9.47985
-9.47107
-9.45932
-9.44434
-9.42586
-9.4036
-9.37728
-9.34658
-9.3112
-9.27081
-9.22511
-9.17375
-9.11642
-9.05277
-8.98249
-8.90527
-8.8208
-8.72881
-8.62904
-8.52132
-8.40544
-8.28102
-8.1478
-8.00575
-7.85486
-7.69521
-7.52691
-7.35011
-7.16505
-6.972
-6.7713
-6.56334
-6.3486
-6.12761
-5.90094
-5.66923
-5.43316
-5.19345
-4.95086
-4.70618
-4.4602
-4.21373
-3.96759
-3.72256
-3.47943
-3.23894
-3.00182
-2.76873
-2.54026
-2.31698
-2.09935
-1.8878
-1.68268
-1.48423
-1.29265
-1.10804
-0.930458
-0.759868
-0.596167
-0.43918
-0.288669
-0.14434
-0.00584515
0.127224
0.255325
0.378965
0.498702
0.615139
0.728918
0.840712
0.95125
1.06131
1.17167
1.28314
1.39652
1.51267
1.63242
1.75669
1.88639
2.02237
2.16546
2.31647
2.47621
2.64541
2.82476
3.01488
3.21632
3.42954
3.65492
3.89272
4.1431
4.40607
4.68153
4.96923
5.26892
5.58008
5.90197
6.2339
6.57506
6.92425
7.28038
7.64223
8.00812
8.37692
8.74678
9.11659
9.48478
9.85018
10.2112
10.5654
10.9147
11.2548
11.5995
11.8946
-8.71071
-8.71774
-8.72703
-8.73318
-8.73632
-8.73811
-8.73963
-8.74149
-8.74407
-8.74759
-8.75217
-8.75784
-8.76459
-8.7724
-8.78123
-8.79101
-8.8017
-8.81324
-8.82555
-8.83858
-8.85226
-8.86653
-8.88132
-8.89658
-8.91225
-8.92828
-8.94461
-8.96121
-8.97803
-8.99504
-9.0122
-9.02947
-9.04684
-9.06427
-9.08174
-9.09923
-9.11673
-9.13421
-9.15166
-9.16905
-9.18638
-9.20361
-9.22073
-9.23771
-9.25452
-9.27113
-9.28751
-9.30363
-9.31942
-9.33486
-9.34989
-9.36444
-9.37845
-9.39184
-9.40454
-9.41646
-9.42749
-9.43753
-9.44646
-9.45417
-9.46052
-9.46536
-9.46853
-9.46986
-9.46916
-9.46623
-9.46087
-9.45286
-9.44195
-9.4279
-9.41045
-9.38932
-9.36421
-9.33483
-9.30086
-9.262
-9.21791
-9.16827
-9.11275
-9.051
-8.98271
-8.90756
-8.82525
-8.73547
-8.63799
-8.53261
-8.41905
-8.29689
-8.1659
-8.02605
-7.87735
-7.71984
-7.55361
-7.37882
-7.19566
-7.00441
-6.80537
-6.59894
-6.38556
-6.16575
-5.94007
-5.70914
-5.47363
-5.23426
-4.99177
-4.74695
-4.5006
-4.25352
-4.00653
-3.76043
-3.51602
-3.27406
-3.03528
-2.80036
-2.56993
-2.34457
-2.12479
-1.91102
-1.70364
-1.50293
-1.30912
-1.12233
-0.942649
-0.770067
-0.604501
-0.445796
-0.293737
-0.148049
-0.00839214
0.125627
0.25446
0.37861
0.498637
0.615157
0.728819
0.840287
0.950276
1.05956
1.16894
1.27921
1.39122
1.50582
1.62391
1.74641
1.8742
2.00813
2.14905
2.29782
2.45525
2.62209
2.79903
2.98671
3.18569
3.39644
3.61936
3.85472
4.10267
4.36324
4.63633
4.92168
5.2191
5.52809
5.84779
6.17756
6.5167
6.86382
7.21788
7.57776
7.94158
8.3087
8.67738
9.04588
9.41302
9.77757
10.1381
10.4923
10.842
11.1817
11.527
11.8124
-8.69421
-8.70326
-8.71617
-8.72563
-8.73139
-8.73527
-8.7384
-8.74144
-8.74481
-8.74882
-8.75365
-8.75938
-8.76606
-8.77368
-8.78223
-8.79166
-8.80193
-8.81299
-8.82479
-8.83726
-8.85037
-8.86404
-8.87823
-8.89288
-8.90795
-8.92338
-8.93913
-8.95516
-8.97143
-8.9879
-9.00454
-9.02133
-9.03822
-9.05521
-9.07226
-9.08936
-9.10648
-9.12362
-9.14074
-9.15784
-9.17489
-9.19188
-9.20878
-9.22556
-9.2422
-9.25866
-9.27492
-9.29094
-9.30667
-9.32207
-9.33708
-9.35166
-9.36572
-9.3792
-9.39202
-9.40408
-9.41531
-9.42558
-9.4348
-9.44283
-9.44956
-9.45482
-9.45847
-9.46033
-9.46022
-9.45795
-9.4533
-9.44607
-9.43602
-9.4229
-9.40645
-9.38638
-9.36241
-9.33424
-9.30155
-9.26403
-9.22134
-9.17316
-9.11915
-9.05896
-8.99227
-8.91875
-8.83808
-8.74997
-8.65416
-8.55046
-8.43842
-8.31764
-8.18801
-8.04946
-7.90199
-7.74562
-7.58044
-7.40659
-7.22424
-7.03367
-6.83516
-6.62911
-6.41595
-6.19619
-5.97038
-5.73915
-5.50316
-5.26312
-5.0198
-4.77399
-4.52648
-4.2781
-4.02967
-3.78203
-3.53596
-3.29227
-3.05169
-2.81495
-2.58268
-2.35548
-2.1339
-1.91838
-1.70933
-1.50704
-1.31175
-1.12363
-0.942774
-0.769176
-0.602767
-0.443406
-0.290885
-0.144933
-0.00521128
0.128676
0.257182
0.380816
0.500143
0.615789
0.728424
0.838735
0.94742
1.05523
1.16298
1.27151
1.38167
1.49439
1.61056
1.73106
1.85677
1.98858
2.12738
2.27401
2.42931
2.59403
2.76888
2.95451
3.15146
3.36023
3.58124
3.81475
4.0609
4.31974
4.59117
4.87491
5.17085
5.47846
5.79675
6.12516
6.46313
6.809
7.16185
7.52096
7.88426
8.25075
8.61908
8.9875
9.35473
9.71946
10.0802
10.4349
10.7847
11.1234
11.467
11.7444
-8.68241
-8.69289
-8.70826
-8.72044
-8.72863
-8.73456
-8.73938
-8.74376
-8.74816
-8.75291
-8.75824
-8.76428
-8.77111
-8.77874
-8.78718
-8.79642
-8.80642
-8.81714
-8.82855
-8.8406
-8.85324
-8.86642
-8.88011
-8.89425
-8.90879
-8.92371
-8.93895
-8.95449
-8.97028
-8.98629
-9.00249
-9.01885
-9.03536
-9.05197
-9.06868
-9.08546
-9.10229
-9.11917
-9.13606
-9.15296
-9.16984
-9.18667
-9.20345
-9.22014
-9.23671
-9.25314
-9.26939
-9.28543
-9.30121
-9.31669
-9.33181
-9.34652
-9.36076
-9.37444
-9.38749
-9.39983
-9.41136
-9.42197
-9.43157
-9.44003
-9.44722
-9.453
-9.45721
-9.45968
-9.46023
-9.45867
-9.4548
-9.44839
-9.43922
-9.42703
-9.41157
-9.39254
-9.36966
-9.34262
-9.31112
-9.27482
-9.23338
-9.18648
-9.13375
-9.07487
-9.00948
-8.93724
-8.85784
-8.77096
-8.67636
-8.57379
-8.46267
-8.34262
-8.21367
-8.07572
-7.92874
-7.77276
-7.60783
-7.4341
-7.25173
-7.06098
-6.86215
-6.65561
-6.44181
-6.22124
-5.99446
-5.7621
-5.52483
-5.28338
-5.03852
-4.79105
-4.54179
-4.29158
-4.04127
-3.79169
-3.54369
-3.29805
-3.05557
-2.81696
-2.58291
-2.35403
-2.13088
-1.91393
-1.7036
-1.5002
-1.30398
-1.11513
-0.933741
-0.759821
-0.593303
-0.434047
-0.281849
-0.136429
0.00255746
0.135519
0.262917
0.38527
0.503152
0.617199
0.728097
0.836562
0.943313
1.0491
1.15475
1.26111
1.36908
1.47956
1.59346
1.71169
1.83513
1.9647
2.1013
2.24579
2.399
2.56168
2.73457
2.9183
3.11344
3.32048
3.53989
3.77189
4.01662
4.27412
4.54427
4.8268
5.12172
5.42843
5.74572
6.07312
6.41041
6.7559
7.10831
7.46697
7.83017
8.19669
8.56522
8.93407
9.30189
9.6673
10.0288
10.3842
10.7344
11.0723
11.4143
11.6857
-8.67746
-8.68855
-8.70514
-8.71905
-8.72903
-8.7366
-8.74286
-8.74846
-8.75385
-8.75937
-8.76527
-8.7717
-8.77876
-8.7865
-8.79494
-8.80408
-8.8139
-8.82439
-8.83551
-8.84722
-8.85949
-8.87227
-8.88554
-8.89925
-8.91337
-8.92785
-8.94268
-8.9578
-8.97319
-8.98882
-9.00466
-9.02069
-9.03688
-9.05321
-9.06966
-9.08622
-9.10286
-9.11956
-9.13632
-9.15311
-9.16992
-9.18671
-9.20347
-9.22018
-9.2368
-9.2533
-9.26965
-9.28582
-9.30176
-9.31742
-9.33276
-9.34772
-9.36223
-9.37622
-9.38961
-9.40232
-9.41425
-9.4253
-9.43538
-9.44435
-9.45209
-9.45845
-9.46329
-9.46643
-9.4677
-9.4669
-9.46384
-9.45828
-9.45001
-9.43876
-9.42427
-9.40626
-9.38443
-9.35848
-9.32807
-9.29288
-9.25256
-9.20677
-9.15515
-9.09735
-9.033
-8.96176
-8.88329
-8.79729
-8.70351
-8.60157
-8.49081
-8.37098
-8.24215
-8.10421
-7.95712
-7.80088
-7.63557
-7.46128
-7.27821
-7.08659
-6.88673
-6.679
-6.46385
-6.24178
-6.01335
-5.77921
-5.54003
-5.29656
-5.04959
-4.79994
-4.54846
-4.29601
-4.04346
-3.79168
-3.5415
-3.29377
-3.04929
-2.80882
-2.57304
-2.34262
-2.1181
-1.89999
-1.68871
-1.48458
-1.28787
-1.09878
-0.917389
-0.74371
-0.577675
-0.419142
-0.267898
-0.123652
0.0139572
0.145352
0.271011
0.391465
0.507299
0.619163
0.727764
0.833842
0.938147
1.04145
1.14457
1.24839
1.3538
1.46174
1.57311
1.68884
1.80985
1.93706
2.07137
2.21366
2.36476
2.52544
2.69641
2.87835
3.07181
3.27726
3.49525
3.72599
3.96953
4.22595
4.49506
4.77654
5.07059
5.3767
5.6935
6.02046
6.35721
6.70245
7.05487
7.41358
7.77707
8.14406
8.51319
8.88286
9.25163
9.61805
9.98056
10.3371
10.6878
11.0255
11.3664
11.6338
-8.67905
-8.69013
-8.70693
-8.72166
-8.73274
-8.74145
-8.74879
-8.75534
-8.76154
-8.76772
-8.77412
-8.78091
-8.78821
-8.79607
-8.80454
-8.81363
-8.82333
-8.83363
-8.84452
-8.85596
-8.86793
-8.88039
-8.89332
-8.90668
-8.92045
-8.93459
-8.94908
-8.96387
-8.97895
-8.99429
-9.00987
-9.02565
-9.04163
-9.05777
-9.07406
-9.09049
-9.10703
-9.12368
-9.14041
-9.1572
-9.17403
-9.19089
-9.20774
-9.22457
-9.24134
-9.25802
-9.27458
-9.29098
-9.30718
-9.32314
-9.3388
-9.35411
-9.36899
-9.38338
-9.3972
-9.41036
-9.42278
-9.43435
-9.44498
-9.45453
-9.46288
-9.4699
-9.47542
-9.47929
-9.48131
-9.48131
-9.47908
-9.4744
-9.46703
-9.45672
-9.4432
-9.42618
-9.40536
-9.38042
-9.35103
-9.31685
-9.27754
-9.23272
-9.18203
-9.12511
-9.06158
-8.99108
-8.91326
-8.82784
-8.73455
-8.63272
-8.52178
-8.40172
-8.27254
-8.13411
-7.98639
-7.82936
-7.66309
-7.48769
-7.30333
-7.11025
-6.90877
-6.69926
-6.48216
-6.25801
-6.02736
-5.79088
-5.54926
-5.30328
-5.05374
-4.80149
-4.54741
-4.29239
-4.03732
-3.78311
-3.5306
-3.28067
-3.03416
-2.79183
-2.55442
-2.32259
-2.09691
-1.87789
-1.66597
-1.46148
-1.26468
-1.07577
-0.894853
-0.721916
-0.556887
-0.399617
-0.249878
-0.10736
0.0283164
0.157594
0.28097
0.398992
0.512264
0.621457
0.727297
0.830542
0.931969
1.03238
1.13261
1.23355
1.33613
1.44126
1.54989
1.66294
1.78137
1.90609
2.03804
2.17809
2.32706
2.48575
2.65487
2.83509
3.02695
3.23088
3.44744
3.67698
3.91945
4.1749
4.4432
4.72401
5.01733
5.3228
5.63929
5.96614
6.3028
6.64811
7.00086
7.36001
7.72415
8.09196
8.46205
8.83286
9.20289
9.57061
9.93444
10.2923
10.6439
10.9818
11.3221
11.5871
-8.6864
-8.69699
-8.71323
-8.72799
-8.73952
-8.74885
-8.75684
-8.76403
-8.77079
-8.77744
-8.78422
-8.79129
-8.79876
-8.80672
-8.8152
-8.82424
-8.83383
-8.84398
-8.85467
-8.86588
-8.8776
-8.8898
-8.90246
-8.91555
-8.92905
-8.94293
-8.95716
-8.97172
-8.98658
-9.00173
-9.01713
-9.03277
-9.04863
-9.06468
-9.08092
-9.09733
-9.11389
-9.13057
-9.14738
-9.16427
-9.18124
-9.19827
-9.21531
-9.23236
-9.24938
-9.26635
-9.28321
-9.29995
-9.31651
-9.33285
-9.34892
-9.36465
-9.37999
-9.39486
-9.40918
-9.42287
-9.43584
-9.44799
-9.45921
-9.4694
-9.47842
-9.48612
-9.49236
-9.49698
-9.49979
-9.5006
-9.49922
-9.49541
-9.48894
-9.47956
-9.46697
-9.4509
-9.43104
-9.40705
-9.3786
-9.34534
-9.3069
-9.26291
-9.213
-9.15677
-9.09385
-9.02385
-8.94643
-8.86132
-8.76812
-8.66593
-8.55437
-8.43368
-8.30372
-8.16438
-8.01557
-7.85729
-7.68959
-7.51257
-7.32643
-7.13139
-6.92777
-6.71597
-6.49644
-6.26971
-6.03638
-5.7971
-5.55261
-5.30369
-5.05121
-4.79602
-4.53905
-4.28121
-4.02344
-3.76665
-3.51172
-3.25954
-3.011
-2.7669
-2.52797
-2.2949
-2.06827
-1.84862
-1.63637
-1.43186
-1.23534
-1.04703
-0.867018
-0.695282
-0.531735
-0.376214
-0.22847
-0.0881715
0.0450855
0.171765
0.292383
0.407511
0.517778
0.62388
0.726561
0.826601
0.924799
1.02198
1.11902
1.21682
1.31631
1.41842
1.52411
1.63433
1.75003
1.87216
2.00164
2.13936
2.28614
2.44279
2.61003
2.78851
2.97879
3.18131
3.39652
3.6248
3.8662
4.12075
4.38832
4.66864
4.96155
5.26666
5.58305
5.91002
6.24689
6.59257
6.94591
7.3058
7.67086
8.03976
8.41106
8.78325
9.15476
9.52401
9.88938
10.2487
10.6014
10.94
11.2802
11.5442
-8.69841
-8.70817
-8.72326
-8.7374
-8.74882
-8.75828
-8.76652
-8.774
-8.78106
-8.78798
-8.79497
-8.80219
-8.80975
-8.81774
-8.8262
-8.83516
-8.84464
-8.85464
-8.86516
-8.87619
-8.8877
-8.8997
-8.91215
-8.92504
-8.93834
-8.95203
-8.9661
-8.98051
-8.99525
-9.0103
-9.02563
-9.04122
-9.05707
-9.07315
-9.08944
-9.10593
-9.1226
-9.13944
-9.15642
-9.17352
-9.19073
-9.20802
-9.22536
-9.24273
-9.26009
-9.27742
-9.29468
-9.31182
-9.32882
-9.34561
-9.36216
-9.37839
-9.39424
-9.40964
-9.42451
-9.43877
-9.45233
-9.46509
-9.47695
-9.48779
-9.49749
-9.50589
-9.51286
-9.51823
-9.52182
-9.52345
-9.52289
-9.51994
-9.51434
-9.50584
-9.49415
-9.47898
-9.46
-9.43689
-9.40929
-9.37684
-9.33916
-9.29586
-9.24656
-9.19086
-9.12833
-9.05861
-8.98137
-8.89632
-8.80268
-8.69962
-8.58717
-8.46549
-8.33439
-8.19374
-8.04345
-7.88351
-7.71395
-7.53491
-7.34655
-7.14912
-6.94296
-6.72844
-6.50606
-6.27635
-6.03995
-5.79752
-5.5498
-5.29764
-5.04193
-4.78357
-4.52351
-4.26269
-4.00211
-3.74271
-3.48534
-3.23092
-2.98043
-2.73467
-2.4944
-2.2603
-2.03298
-1.81297
-1.6007
-1.39644
-1.20049
-1.01312
-0.834387
-0.664253
-0.502609
-0.349271
-0.203963
-0.0663268
0.0640671
0.187706
0.30513
0.416937
0.523789
0.626408
0.72556
0.822044
0.916681
1.01033
1.10388
1.19826
1.29442
1.39329
1.49584
1.60305
1.71587
1.83527
1.96217
2.09746
2.24199
2.39653
2.56183
2.73854
2.92723
3.12834
3.34231
3.56949
3.80996
4.06374
4.33074
4.6107
4.9034
5.20839
5.52488
5.85216
6.18946
6.53573
6.88987
7.25069
7.61686
7.98701
8.3597
8.7334
9.10653
9.47745
9.84446
10.2053
10.5593
10.899
11.2393
11.5036
-8.71385
-8.72253
-8.73606
-8.74907
-8.75989
-8.76907
-8.7772
-8.78467
-8.79177
-8.79874
-8.80577
-8.813
-8.82056
-8.8285
-8.83688
-8.84574
-8.85509
-8.86495
-8.87532
-8.88618
-8.89754
-8.90938
-8.92168
-8.93443
-8.94762
-8.96121
-8.9752
-8.98955
-9.00427
-9.01931
-9.03467
-9.05033
-9.06627
-9.08248
-9.09892
-9.1156
-9.13249
-9.14957
-9.16683
-9.18423
-9.20177
-9.21941
-9.23712
-9.25489
-9.27267
-9.29043
-9.30814
-9.32576
-9.34324
-9.36054
-9.37759
-9.39435
-9.41074
-9.4267
-9.44214
-9.45698
-9.47113
-9.48451
-9.49699
-9.50848
-9.51883
-9.52792
-9.5356
-9.54169
-9.54602
-9.54841
-9.54864
-9.54649
-9.54171
-9.53403
-9.52317
-9.50882
-9.49065
-9.46832
-9.44146
-9.4097
-9.37265
-9.32991
-9.28106
-9.22568
-9.16335
-9.09372
-9.01648
-8.93112
-8.83644
-8.7321
-8.6185
-8.49552
-8.36297
-8.22069
-8.06859
-7.90663
-7.73488
-7.55344
-7.36252
-7.16235
-6.95329
-6.73572
-6.51015
-6.27717
-6.03743
-5.79158
-5.54039
-5.28477
-5.02565
-4.76398
-4.50072
-4.23688
-3.97348
-3.71148
-3.45161
-3.1949
-2.94248
-2.69513
-2.45363
-2.21865
-1.99083
-1.77069
-1.55864
-1.35499
-1.16004
-0.97403
-0.796992
-0.62888
-0.469571
-0.318854
-0.176425
-0.0418945
0.0851943
0.205355
0.319154
0.427222
0.530257
0.629008
0.724265
0.816845
0.907596
0.997404
1.08719
1.1779
1.27048
1.36591
1.46514
1.56918
1.679
1.79556
1.91981
2.05262
2.19484
2.34727
2.51064
2.68561
2.87275
3.07251
3.28533
3.51152
3.75118
4.00434
4.2709
4.55064
4.84327
5.14833
5.46509
5.79282
6.13073
6.47776
6.83283
7.19472
7.5621
7.93361
8.30777
8.68304
9.05783
9.43043
9.79912
10.1616
10.5169
10.8578
11.1986
11.464
-8.73148
-8.7389
-8.75059
-8.76213
-8.77197
-8.78052
-8.78823
-8.79541
-8.80231
-8.80913
-8.81604
-8.82316
-8.83059
-8.83841
-8.84667
-8.85539
-8.8646
-8.87432
-8.88455
-8.89528
-8.90652
-8.91826
-8.93047
-8.94316
-8.9563
-8.96988
-8.98387
-8.99827
-9.01305
-9.02819
-9.04369
-9.05951
-9.07564
-9.09206
-9.10876
-9.12572
-9.14292
-9.16033
-9.17794
-9.19573
-9.21366
-9.23172
-9.24987
-9.26808
-9.28633
-9.30456
-9.32276
-9.34088
-9.35886
-9.37667
-9.39424
-9.41152
-9.42845
-9.44493
-9.46092
-9.47631
-9.49102
-9.50496
-9.51803
-9.5301
-9.54106
-9.55077
-9.55907
-9.56582
-9.57082
-9.5739
-9.57483
-9.5734
-9.56934
-9.5624
-9.55227
-9.53863
-9.52116
-9.4995
-9.47326
-9.44207
-9.4055
-9.36315
-9.31457
-9.25933
-9.19702
-9.12733
-9.04985
-8.96343
-8.86721
-8.7615
-8.6465
-8.52196
-8.38769
-8.24352
-8.08932
-7.92505
-7.7508
-7.5667
-7.37294
-7.16977
-6.95755
-6.73669
-6.50772
-6.27126
-6.02805
-5.77867
-5.52381
-5.26452
-5.00182
-4.73666
-4.47005
-4.20302
-3.93661
-3.67181
-3.4095
-3.15071
-2.8965
-2.64771
-2.40515
-2.16952
-1.94146
-1.72149
-1.51005
-1.30745
-1.11397
-0.92978
-0.754908
-0.589297
-0.432802
-0.28518
-0.146095
-0.015125
0.108216
0.224468
0.334232
0.438173
0.537022
0.631558
0.722594
0.810968
0.897557
0.983275
1.06907
1.1559
1.24473
1.33655
1.43233
1.53309
1.63982
1.75349
1.87503
2.00533
2.14524
2.29557
2.45705
2.63033
2.81597
3.01447
3.22621
3.45152
3.69049
3.94314
4.2094
4.48903
4.78173
5.08701
5.40416
5.73246
6.07109
6.419
6.77508
7.13811
7.50677
7.87967
8.25531
8.63214
9.00855
9.38277
9.75305
10.1171
10.4737
10.8159
11.1572
11.4243
-8.75011
-8.7562
-8.76589
-8.77571
-8.78431
-8.79195
-8.79897
-8.80564
-8.81212
-8.81861
-8.82524
-8.83212
-8.83934
-8.84696
-8.85502
-8.86358
-8.87264
-8.88222
-8.89233
-8.90297
-8.91414
-8.92582
-8.93802
-8.95071
-8.96389
-8.97753
-8.99162
-9.00615
-9.02109
-9.03642
-9.05213
-9.06821
-9.08462
-9.10135
-9.11838
-9.1357
-9.15327
-9.17109
-9.18911
-9.20733
-9.2257
-9.24421
-9.26282
-9.2815
-9.30021
-9.31892
-9.3376
-9.35619
-9.37465
-9.39293
-9.41097
-9.42872
-9.44611
-9.46307
-9.47951
-9.49537
-9.51055
-9.52496
-9.5385
-9.55106
-9.56251
-9.57272
-9.58155
-9.58883
-9.59438
-9.59802
-9.59954
-9.5987
-9.59524
-9.58891
-9.57938
-9.56632
-9.5494
-9.52826
-9.5025
-9.47171
-9.43547
-9.39333
-9.34483
-9.28954
-9.22712
-9.1572
-9.07882
-8.99067
-8.89272
-8.78554
-8.66895
-8.54266
-8.40648
-8.26027
-8.10389
-7.93721
-7.7603
-7.57337
-7.37658
-7.17022
-6.95463
-6.73027
-6.49766
-6.25746
-6.01039
-5.75717
-5.49855
-5.23552
-4.96911
-4.70035
-4.4303
-4.16003
-3.89062
-3.62311
-3.3585
-3.09782
-2.84208
-2.59217
-2.34891
-2.11302
-1.88513
-1.66579
-1.45542
-1.25434
-1.06278
-0.880886
-0.708661
-0.54603
-0.392818
-0.248748
-0.113446
0.0135403
0.132727
0.244686
0.350053
0.449531
0.543884
0.633917
0.720465
0.804393
0.886605
0.968044
1.04968
1.13249
1.21744
1.30555
1.39781
1.49524
1.59883
1.70958
1.8284
1.95619
2.09382
2.24209
2.40172
2.57337
2.7576
2.95491
3.16568
3.39019
3.62858
3.88085
4.14692
4.42655
4.71942
5.02502
5.34268
5.67165
6.01108
6.35993
6.71709
7.08129
7.45124
7.82552
8.2026
8.58093
8.95885
9.33458
9.7063
10.0717
10.4294
10.7728
11.1146
11.3839
-8.76869
-8.77345
-8.78112
-8.78909
-8.79626
-8.80278
-8.80892
-8.81485
-8.82074
-8.82672
-8.83292
-8.83942
-8.84632
-8.85366
-8.86149
-8.86984
-8.87874
-8.88819
-8.8982
-8.90878
-8.91992
-8.93161
-8.94385
-8.95662
-8.96991
-8.9837
-8.99797
-9.0127
-9.02788
-9.04349
-9.0595
-9.07589
-9.09265
-9.10975
-9.12717
-9.14489
-9.16288
-9.18112
-9.19957
-9.21822
-9.23704
-9.25598
-9.27503
-9.29413
-9.31327
-9.3324
-9.35148
-9.37046
-9.3893
-9.40795
-9.42636
-9.44446
-9.46218
-9.47947
-9.49624
-9.51241
-9.5279
-9.54263
-9.55648
-9.56936
-9.58113
-9.59168
-9.60085
-9.60849
-9.61443
-9.61846
-9.62039
-9.61997
-9.61696
-9.61108
-9.60202
-9.58943
-9.57293
-9.55219
-9.52677
-9.49626
-9.4602
-9.41813
-9.3696
-9.31422
-9.25164
-9.18101
-9.10069
-9.01045
-8.91105
-8.80236
-8.68409
-8.55595
-8.41772
-8.26926
-8.11047
-7.94125
-7.7616
-7.57169
-7.37172
-7.16198
-6.94285
-6.7148
-6.47838
-6.23426
-5.98319
-5.72596
-5.46343
-5.19657
-4.92646
-4.65415
-4.38076
-4.1074
-3.8352
-3.56524
-3.2986
-3.03631
-2.77939
-2.52874
-2.2852
-2.04949
-1.82225
-1.60402
-1.39522
-1.19615
-1.007
-0.827891
-0.6588
-0.499622
-0.350149
-0.210064
-0.0789567
0.0436579
0.158326
0.265654
0.366314
0.46105
0.550654
0.635956
0.717812
0.797115
0.874799
0.951834
1.0292
1.1079
1.18891
1.27326
1.36197
1.45605
1.55652
1.66435
1.78049
1.90583
2.04123
2.1875
2.34536
2.51546
2.69838
2.89459
3.10449
3.32833
3.56623
3.81823
4.08422
4.36396
4.65709
4.96311
5.28135
5.61106
5.95135
6.30118
6.65942
7.02482
7.39603
7.77163
8.15009
8.52981
8.90909
9.28614
9.6591
10.0256
10.3843
10.7287
11.0707
11.3425
-8.78641
-8.78991
-8.79564
-8.80173
-8.80736
-8.8126
-8.81765
-8.82265
-8.82774
-8.83304
-8.83864
-8.84464
-8.85111
-8.85808
-8.86561
-8.87373
-8.88244
-8.89176
-8.90169
-8.91224
-8.92339
-8.93515
-8.94748
-8.96039
-8.97386
-8.98786
-9.00237
-9.01738
-9.03285
-9.04878
-9.06514
-9.08189
-9.09903
-9.11651
-9.13433
-9.15244
-9.17083
-9.18946
-9.2083
-9.22733
-9.24652
-9.26582
-9.28521
-9.30464
-9.32408
-9.34349
-9.36283
-9.38205
-9.40111
-9.41996
-9.43855
-9.45681
-9.47468
-9.49209
-9.50898
-9.52527
-9.54087
-9.55571
-9.56967
-9.58266
-9.59456
-9.60525
-9.61458
-9.6224
-9.62853
-9.63279
-9.63496
-9.63481
-9.63209
-9.62651
-9.61776
-9.6055
-9.58934
-9.56887
-9.54368
-9.51331
-9.47731
-9.43524
-9.3867
-9.33122
-9.26796
-9.19519
-9.11253
-9.02084
-8.92004
-8.8098
-8.6898
-8.55974
-8.4194
-8.26861
-8.10727
-7.93531
-7.75275
-7.55974
-7.35648
-7.14328
-6.92053
-6.68872
-6.44845
-6.2004
-5.94535
-5.68415
-5.41774
-5.14713
-4.8734
-4.5977
-4.32116
-4.04495
-3.77024
-3.49817
-3.22984
-2.96633
-2.70865
-2.45772
-2.21438
-1.97936
-1.7533
-1.53671
-1.33
-1.13345
-0.947232
-0.771404
-0.60593
-0.450668
-0.305368
-0.169673
-0.043137
0.0747575
0.184589
0.287
0.382703
0.472475
0.557138
0.637541
0.714565
0.789131
0.862202
0.934769
1.00783
1.08239
1.15945
1.24006
1.32524
1.41603
1.51343
1.61841
1.73193
1.8549
1.98817
2.13253
2.28873
2.4574
2.63911
2.83435
3.04347
3.26674
3.50429
3.75611
4.02212
4.30205
4.59554
4.90206
5.22094
5.55143
5.89262
6.24344
6.60277
6.96932
7.34175
7.71861
8.09833
8.47929
8.85977
9.23794
9.6119
9.9793
10.3386
10.6838
11.0257
11.3001
-8.80279
-8.80518
-8.80912
-8.81339
-8.8174
-8.82121
-8.82496
-8.8288
-8.83286
-8.83725
-8.84206
-8.84738
-8.85327
-8.85977
-8.86692
-8.87474
-8.88324
-8.89243
-8.90229
-8.91282
-8.92402
-8.93586
-8.94833
-8.96142
-8.97509
-8.98933
-9.00411
-9.0194
-9.03519
-9.05144
-9.06813
-9.08522
-9.1027
-9.12052
-9.13867
-9.1571
-9.17579
-9.1947
-9.21381
-9.23309
-9.25249
-9.27198
-9.29152
-9.31109
-9.33062
-9.3501
-9.36948
-9.3887
-9.40774
-9.42654
-9.44505
-9.46322
-9.48098
-9.49828
-9.51503
-9.53118
-9.54665
-9.56134
-9.57518
-9.58806
-9.59987
-9.61048
-9.61977
-9.62757
-9.63373
-9.63804
-9.6403
-9.64028
-9.63771
-9.63231
-9.62376
-9.61168
-9.5957
-9.57538
-9.55028
-9.51995
-9.48396
-9.44197
-9.39342
-9.33708
-9.27129
-9.19603
-9.11203
-9.01913
-8.91698
-8.8052
-8.68348
-8.55152
-8.40908
-8.25599
-8.09213
-7.91746
-7.73202
-7.53593
-7.32941