/*--------------------------------*- C++ -*----------------------------------*\
| =========                 |                                                 |
| \\      /  F ield         | OpenFOAM: The Open Source CFD Toolbox           |
|  \\    /   O peration     | Version:  2.2.x                                 |
|   \\  /    A nd           | Web:      www.OpenFOAM.org                      |
|    \\/     M anipulation  |                                                 |
\*---------------------------------------------------------------------------*/
FoamFile
{
    version     2.0;
    format      ascii;
    class       surfaceScalarField;
    location    "450";
    object      phi;
}
// * * * * * * * * * * * * * * * * * * * * * * * * * * * * * * * * * * * * * //

dimensions      [0 3 -1 0 0 0 0];

internalField   nonuniform List<scalar> 
24170
(
3.08816e-06
4.57331e-08
3.01421e-06
7.39525e-08
2.95206e-06
6.2143e-08
2.88978e-06
6.22765e-08
2.83022e-06
5.9558e-08
2.7748e-06
5.54212e-08
2.72355e-06
5.12499e-08
2.6762e-06
4.7352e-08
2.63245e-06
4.37548e-08
2.592e-06
4.04481e-08
2.55459e-06
3.74126e-08
2.51996e-06
3.46248e-08
2.4879e-06
3.20617e-08
2.45819e-06
2.971e-08
2.43059e-06
2.75951e-08
2.40459e-06
2.60077e-08
2.37797e-06
2.66185e-08
3.00503e-08
2.34792e-06
3.46859e-06
3.35909e-08
3.45793e-06
8.46027e-08
3.44342e-06
7.66544e-08
3.42862e-06
7.70786e-08
3.41245e-06
7.57267e-08
3.39533e-06
7.25359e-08
3.37759e-06
6.89872e-08
3.35948e-06
6.54689e-08
3.34121e-06
6.20248e-08
3.32298e-06
5.86724e-08
3.30497e-06
5.54277e-08
3.28729e-06
5.22995e-08
3.27006e-06
4.92934e-08
3.25335e-06
4.64237e-08
3.2372e-06
4.37482e-08
3.22172e-06
4.14811e-08
3.20844e-06
3.99017e-08
3.71329e-08
3.20136e-06
3.80923e-06
3.65571e-08
3.81786e-06
7.59631e-08
3.82011e-06
7.44079e-08
3.8222e-06
7.49907e-08
3.82301e-06
7.49091e-08
3.82251e-06
7.30381e-08
3.82102e-06
7.04763e-08
3.81879e-06
6.77039e-08
3.81598e-06
6.48296e-08
3.81275e-06
6.1905e-08
3.8092e-06
5.89724e-08
3.80544e-06
5.60608e-08
3.80155e-06
5.31891e-08
3.79759e-06
5.03772e-08
3.79368e-06
4.76617e-08
3.79006e-06
4.5101e-08
3.78741e-06
4.25491e-08
3.84339e-08
3.78611e-06
4.20602e-06
3.50953e-08
4.21524e-06
6.67407e-08
4.21959e-06
7.00566e-08
4.22324e-06
7.13361e-08
4.22625e-06
7.1903e-08
4.22854e-06
7.07465e-08
4.23034e-06
6.86775e-08
4.2318e-06
6.62475e-08
4.23299e-06
6.36336e-08
4.23398e-06
6.09124e-08
4.23482e-06
5.81374e-08
4.23554e-06
5.53429e-08
4.23618e-06
5.25484e-08
4.23679e-06
4.97646e-08
4.23746e-06
4.69927e-08
4.23837e-06
4.41896e-08
4.23983e-06
4.10938e-08
3.67038e-08
4.24156e-06
4.64072e-06
3.16786e-08
4.64867e-06
5.87927e-08
4.65364e-06
6.50891e-08
4.65782e-06
6.7149e-08
4.66166e-06
6.80643e-08
4.66505e-06
6.73584e-08
4.66808e-06
6.56498e-08
4.67084e-06
6.34833e-08
4.6734e-06
6.10742e-08
4.6758e-06
5.85161e-08
4.67806e-06
5.58682e-08
4.68024e-06
5.31678e-08
4.68235e-06
5.04332e-08
4.68445e-06
4.76665e-08
4.6866e-06
4.48469e-08
4.68889e-06
4.18976e-08
4.69139e-06
3.86006e-08
3.4479e-08
4.69361e-06
5.11835e-06
2.79223e-08
5.12556e-06
5.15806e-08
5.13109e-06
5.95587e-08
5.13583e-06
6.24057e-08
5.14024e-06
6.36585e-08
5.14424e-06
6.33547e-08
5.1479e-06
6.19968e-08
5.15129e-06
6.00921e-08
5.15448e-06
5.78821e-08
5.15752e-06
5.54785e-08
5.16043e-06
5.29495e-08
5.16326e-06
5.03362e-08
5.16604e-06
4.7658e-08
5.16879e-06
4.49134e-08
5.17157e-06
4.20749e-08
5.17439e-06
3.90696e-08
5.17724e-06
3.57507e-08
3.19145e-08
5.17981e-06
5.64455e-06
2.43812e-08
5.65124e-06
4.4885e-08
5.65712e-06
5.36771e-08
5.6623e-06
5.72226e-08
5.66715e-06
5.88172e-08
5.67162e-06
5.88807e-08
5.67576e-06
5.78589e-08
5.67964e-06
5.62149e-08
5.68331e-06
5.42061e-08
5.68683e-06
5.19611e-08
5.69022e-06
4.95568e-08
5.69352e-06
4.70396e-08
5.69674e-06
4.44316e-08
5.69992e-06
4.17334e-08
5.70307e-06
3.89229e-08
5.7062e-06
3.59489e-08
5.70921e-06
3.27338e-08
2.92241e-08
5.71191e-06
4.40853e-06
2.19644e-08
4.41295e-06
4.04576e-08
4.41728e-06
4.9354e-08
4.4212e-06
5.32943e-08
4.4249e-06
5.51236e-08
4.42836e-06
5.54148e-08
4.43161e-06
5.46144e-08
4.43467e-06
5.31554e-08
4.43758e-06
5.12948e-08
4.44037e-06
4.91702e-08
4.44306e-06
4.68643e-08
4.44567e-06
4.44273e-08
4.44822e-06
4.18845e-08
4.45071e-06
3.92407e-08
4.45315e-06
3.64815e-08
4.45553e-06
3.35742e-08
4.45779e-06
3.04781e-08
2.7202e-08
4.45981e-06
5.14232e-06
1.95016e-08
5.14683e-06
3.59501e-08
5.15147e-06
4.47113e-08
5.15584e-06
4.892e-08
5.16002e-06
5.09427e-08
5.16399e-06
5.14433e-08
5.16775e-06
5.086e-08
5.17131e-06
4.95921e-08
5.17471e-06
4.7892e-08
5.17798e-06
4.59027e-08
5.18113e-06
4.37119e-08
5.18419e-06
4.13738e-08
5.18715e-06
3.89179e-08
5.19004e-06
3.63552e-08
5.19284e-06
3.36815e-08
5.19553e-06
3.08834e-08
5.19806e-06
2.79498e-08
2.49265e-08
5.20033e-06
5.99827e-06
1.70242e-08
6.00279e-06
3.14261e-08
6.00769e-06
3.98087e-08
6.01248e-06
4.41321e-08
6.01714e-06
4.62815e-08
6.02163e-06
4.69543e-08
6.02592e-06
4.65701e-08
6.03002e-06
4.54903e-08
6.03396e-06
4.39572e-08
6.03774e-06
4.2116e-08
6.0414e-06
4.00574e-08
6.04493e-06
3.78394e-08
6.04835e-06
3.54965e-08
6.05166e-06
3.30469e-08
6.05484e-06
3.04977e-08
6.05788e-06
2.78524e-08
6.0607e-06
2.51216e-08
2.23661e-08
6.06327e-06
6.99673e-06
1.4563e-08
7.00121e-06
2.69454e-08
7.00631e-06
3.47029e-08
7.01148e-06
3.89684e-08
7.0166e-06
4.11609e-08
7.0216e-06
4.19517e-08
7.02644e-06
4.17346e-08
7.0311e-06
4.08299e-08
7.03559e-06
3.94639e-08
7.03992e-06
3.77799e-08
7.04411e-06
3.58699e-08
7.04815e-06
3.37948e-08
7.05205e-06
3.1594e-08
7.05581e-06
2.92928e-08
7.0594e-06
2.69087e-08
7.06279e-06
2.44581e-08
7.06595e-06
2.19647e-08
1.94911e-08
7.06883e-06
8.16143e-06
1.21454e-08
8.16583e-06
2.25448e-08
8.17108e-06
2.94522e-08
8.17658e-06
3.34718e-08
8.18214e-06
3.56053e-08
8.18764e-06
3.64459e-08
8.19302e-06
3.63516e-08
8.19825e-06
3.56005e-08
8.20332e-06
3.43965e-08
8.20822e-06
3.28764e-08
8.21296e-06
3.1131e-08
8.21753e-06
2.92227e-08
8.22193e-06
2.71948e-08
8.22614e-06
2.50785e-08
8.23015e-06
2.28989e-08
8.23393e-06
2.06805e-08
8.23744e-06
1.84527e-08
1.62725e-08
8.24066e-06
9.52008e-06
9.78851e-09
9.52439e-06
1.82392e-08
9.52974e-06
2.4106e-08
9.53552e-06
2.76853e-08
9.54149e-06
2.96394e-08
9.54749e-06
3.04483e-08
9.55342e-06
3.04219e-08
9.55922e-06
2.97945e-08
9.56488e-06
2.87429e-08
9.57036e-06
2.73917e-08
9.57566e-06
2.58273e-08
9.58077e-06
2.41109e-08
9.58568e-06
2.22877e-08
9.59037e-06
2.03922e-08
9.59481e-06
1.84537e-08
9.59899e-06
1.64999e-08
9.60288e-06
1.45604e-08
1.26839e-08
9.60647e-06
1.1105e-05
7.49561e-09
1.11092e-05
1.402e-08
1.11146e-05
1.86923e-08
1.11207e-05
2.16432e-08
1.1127e-05
2.32831e-08
1.11335e-05
2.39665e-08
1.114e-05
2.39433e-08
1.11464e-05
2.34021e-08
1.11526e-05
2.24882e-08
1.11587e-05
2.13087e-08
1.11646e-05
1.99408e-08
1.11703e-05
1.84416e-08
1.11757e-05
1.68544e-08
1.11809e-05
1.52138e-08
1.11858e-05
1.35494e-08
1.11904e-05
1.1888e-08
1.11947e-05
1.0256e-08
8.69291e-09
1.11987e-05
1.29539e-05
5.25153e-09
1.2958e-05
9.85243e-09
1.29635e-05
1.32042e-08
1.29698e-05
1.53545e-08
1.29766e-05
1.65396e-08
1.29835e-05
1.69953e-08
1.29906e-05
1.69035e-08
1.29976e-05
1.64047e-08
1.30045e-05
1.5609e-08
1.30112e-05
1.46006e-08
1.30177e-05
1.34428e-08
1.30239e-05
1.21838e-08
1.30299e-05
1.08615e-08
1.30356e-05
9.50662e-09
1.3041e-05
8.14517e-09
1.30461e-05
6.80013e-09
1.30509e-05
5.49292e-09
4.25432e-09
1.30553e-05
1.51107e-05
3.01722e-09
1.51149e-05
5.66494e-09
1.51205e-05
7.58172e-09
1.51271e-05
8.77699e-09
1.51342e-05
9.36994e-09
1.51418e-05
9.49413e-09
1.51494e-05
9.2607e-09
1.5157e-05
8.75866e-09
1.51646e-05
8.05947e-09
1.5172e-05
7.21969e-09
1.51791e-05
6.2835e-09
1.5186e-05
5.28572e-09
1.51926e-05
4.25432e-09
1.51989e-05
3.21247e-09
1.52049e-05
2.17974e-09
1.52105e-05
1.17301e-09
1.52158e-05
2.0759e-10
-6.93668e-10
1.52208e-05
1.76267e-05
7.21815e-10
1.76311e-05
1.32676e-09
1.7637e-05
1.67934e-09
1.7644e-05
1.77365e-09
1.76517e-05
1.64724e-09
1.76599e-05
1.34431e-09
1.76682e-05
9.03916e-10
1.76766e-05
3.59676e-10
1.76849e-05
-2.59489e-10
1.76931e-05
-9.2944e-10
1.7701e-05
-1.63012e-09
1.77086e-05
-2.34476e-09
1.7716e-05
-3.05909e-09
1.77229e-05
-3.76078e-09
1.77295e-05
-4.43918e-09
1.77358e-05
-5.08505e-09
1.77417e-05
-5.68984e-09
-6.23792e-09
1.77472e-05
1.78284e-05
-1.44957e-09
1.78325e-05
-2.79711e-09
1.78381e-05
-3.96699e-09
1.78449e-05
-4.96361e-09
1.78523e-05
-5.81198e-09
1.78602e-05
-6.54885e-09
1.78683e-05
-7.20446e-09
1.78765e-05
-7.79869e-09
1.78846e-05
-8.34453e-09
1.78925e-05
-8.85054e-09
1.79002e-05
-9.32175e-09
1.79076e-05
-9.76044e-09
1.79147e-05
-1.01669e-08
1.79215e-05
-1.05404e-08
1.7928e-05
-1.08792e-08
1.7934e-05
-1.11816e-08
1.79398e-05
-1.1445e-08
-1.16601e-08
1.79452e-05
1.58833e-05
-3.38959e-09
1.5887e-05
-6.49077e-09
1.5892e-05
-9.02733e-09
1.58981e-05
-1.09819e-08
1.59047e-05
-1.2445e-08
1.59117e-05
-1.35398e-08
1.59188e-05
-1.43623e-08
1.5926e-05
-1.49797e-08
1.59331e-05
-1.54426e-08
1.59401e-05
-1.57893e-08
1.59468e-05
-1.60471e-08
1.59533e-05
-1.62351e-08
1.59595e-05
-1.63666e-08
1.59654e-05
-1.64505e-08
1.5971e-05
-1.64931e-08
1.59763e-05
-1.64988e-08
1.59813e-05
-1.64697e-08
-1.64012e-08
1.59861e-05
1.41505e-05
-5.20525e-09
1.4154e-05
-9.97818e-09
1.41587e-05
-1.37967e-08
1.41643e-05
-1.65898e-08
1.41705e-05
-1.85515e-08
1.41768e-05
-1.99165e-08
1.41833e-05
-2.08437e-08
1.41898e-05
-2.14423e-08
1.41961e-05
-2.17982e-08
1.42023e-05
-2.19764e-08
1.42083e-05
-2.20236e-08
1.4214e-05
-2.19729e-08
1.42195e-05
-2.1848e-08
1.42247e-05
-2.16664e-08
1.42297e-05
-2.14405e-08
1.42344e-05
-2.11796e-08
1.42388e-05
-2.08895e-08
-2.05697e-08
1.4243e-05
1.26068e-05
-6.936e-09
1.26102e-05
-1.34038e-08
1.26149e-05
-1.84701e-08
1.26202e-05
-2.19714e-08
1.2626e-05
-2.4305e-08
1.26319e-05
-2.58491e-08
1.26379e-05
-2.68139e-08
1.26438e-05
-2.73459e-08
1.26496e-05
-2.75651e-08
1.26552e-05
-2.75608e-08
1.26605e-05
-2.7395e-08
1.26657e-05
-2.71118e-08
1.26706e-05
-2.67433e-08
1.26752e-05
-2.63135e-08
1.26796e-05
-2.58402e-08
1.26838e-05
-2.53371e-08
1.26877e-05
-2.48141e-08
-2.42741e-08
1.26914e-05
1.12314e-05
-8.55209e-09
1.12349e-05
-1.68797e-08
1.12396e-05
-2.31844e-08
1.12449e-05
-2.72192e-08
1.12503e-05
-2.97878e-08
1.12559e-05
-3.14232e-08
1.12615e-05
-3.23569e-08
1.12669e-05
-3.27716e-08
1.12721e-05
-3.28232e-08
1.12772e-05
-3.26208e-08
1.1282e-05
-3.22375e-08
1.12867e-05
-3.17251e-08
1.1291e-05
-3.11217e-08
1.12952e-05
-3.04557e-08
1.12991e-05
-2.97484e-08
1.13028e-05
-2.90166e-08
1.13062e-05
-2.82726e-08
-2.75225e-08
1.13095e-05
1.0006e-05
-9.94146e-09
1.00096e-05
-2.05277e-08
1.00145e-05
-2.80438e-08
1.00197e-05
-3.23633e-08
1.00249e-05
-3.50299e-08
1.00301e-05
-3.66745e-08
1.00353e-05
-3.75082e-08
1.00403e-05
-3.77578e-08
1.00451e-05
-3.76148e-08
1.00497e-05
-3.72014e-08
1.0054e-05
-3.6597e-08
1.00582e-05
-3.58587e-08
1.00621e-05
-3.50284e-08
1.00657e-05
-3.41373e-08
1.00692e-05
-3.32097e-08
1.00725e-05
-3.22658e-08
1.00755e-05
-3.13239e-08
-3.03991e-08
1.00784e-05
8.91405e-06
-1.0898e-08
8.918e-06
-2.44789e-08
8.92302e-06
-3.30608e-08
8.92801e-06
-3.73528e-08
8.93298e-06
-4.0007e-08
8.93789e-06
-4.15781e-08
8.94262e-06
-4.22384e-08
8.94714e-06
-4.2281e-08
8.95146e-06
-4.19259e-08
8.95555e-06
-4.1298e-08
8.95943e-06
-4.04778e-08
8.9631e-06
-3.95242e-08
8.96655e-06
-3.84804e-08
8.96979e-06
-3.73779e-08
8.97282e-06
-3.62409e-08
8.97565e-06
-3.50892e-08
8.97827e-06
-3.39412e-08
-3.28123e-08
8.98068e-06
7.94096e-06
-1.11867e-08
7.94545e-06
-2.89741e-08
7.95048e-06
-3.80894e-08
7.95517e-06
-4.20485e-08
7.95984e-06
-4.46744e-08
7.96437e-06
-4.611e-08
7.96866e-06
-4.65313e-08
7.97271e-06
-4.63305e-08
7.97654e-06
-4.57467e-08
7.98014e-06
-4.48995e-08
7.98353e-06
-4.38673e-08
7.98671e-06
-4.27085e-08
7.9897e-06
-4.14653e-08
7.99249e-06
-4.01677e-08
7.99508e-06
-3.88383e-08
7.99749e-06
-3.74977e-08
7.99972e-06
-3.61729e-08
-3.4908e-08
8.00182e-06
7.0729e-06
-9.76081e-09
7.07856e-06
-3.46355e-08
7.08334e-06
-4.28716e-08
7.08752e-06
-4.62255e-08
7.09173e-06
-4.88862e-08
7.09578e-06
-5.01597e-08
7.09958e-06
-5.03296e-08
7.10314e-06
-4.98926e-08
7.10648e-06
-4.90867e-08
7.10961e-06
-4.80241e-08
7.11253e-06
-4.67833e-08
7.11524e-06
-4.54237e-08
7.11776e-06
-4.39867e-08
7.12009e-06
-4.25e-08
7.12223e-06
-4.09809e-08
7.12418e-06
-3.94397e-08
7.12589e-06
-3.78857e-08
-3.6325e-08
7.12731e-06
6.29708e-06
-4.32945e-09
6.30525e-06
-4.28054e-08
6.31006e-06
-4.76886e-08
6.31406e-06
-5.02187e-08
6.31784e-06
-5.26753e-08
6.32118e-06
-5.34939e-08
6.32413e-06
-5.32756e-08
6.32679e-06
-5.25562e-08
6.32922e-06
-5.15162e-08
6.33144e-06
-5.02413e-08
6.33346e-06
-4.88028e-08
6.33529e-06
-4.72572e-08
6.33695e-06
-4.56438e-08
6.33843e-06
-4.39879e-08
6.33975e-06
-4.23024e-08
6.3409e-06
-4.05889e-08
6.34187e-06
-3.88508e-08
-3.70966e-08
6.34264e-06
5.60106e-06
9.51315e-09
5.61057e-06
-5.23176e-08
5.61455e-06
-5.16741e-08
5.61885e-06
-5.45156e-08
5.62267e-06
-5.64973e-08
5.62548e-06
-5.63024e-08
5.62743e-06
-5.52324e-08
5.62873e-06
-5.38509e-08
5.62949e-06
-5.22742e-08
5.6298e-06
-5.05551e-08
5.62974e-06
-4.87458e-08
5.62937e-06
-4.68877e-08
5.62874e-06
-4.50096e-08
5.62788e-06
-4.31287e-08
5.62682e-06
-4.12491e-08
5.62559e-06
-3.93515e-08
5.62411e-06
-3.73785e-08
-3.50704e-08
5.62209e-06
5.00884e-06
2.98046e-09
5.00509e-06
-4.8574e-08
4.9966e-06
-4.31826e-08
4.9899e-06
-4.78127e-08
4.98303e-06
-4.96309e-08
4.97561e-06
-4.88798e-08
4.96759e-06
-4.72137e-08
4.95897e-06
-4.52325e-08
4.94981e-06
-4.31105e-08
4.94019e-06
-4.0937e-08
4.93022e-06
-3.87737e-08
4.91999e-06
-3.66598e-08
4.9096e-06
-3.46177e-08
4.89912e-06
-3.26577e-08
4.88865e-06
-3.0779e-08
4.87826e-06
-2.89607e-08
4.86802e-06
-2.71359e-08
-2.48708e-08
4.85782e-06
4.45953e-06
4.41095e-06
4.36777e-06
4.31996e-06
4.27033e-06
4.22145e-06
4.17423e-06
4.129e-06
4.08589e-06
4.04495e-06
4.00618e-06
3.96952e-06
3.9349e-06
3.90224e-06
3.87146e-06
3.8425e-06
3.81537e-06
3.7905e-06
2.55219e-08
-2.55219e-08
4.47005e-08
-1.91914e-08
5.25052e-08
-7.81155e-09
4.86429e-08
3.85769e-09
3.42984e-08
1.43424e-08
1.14674e-08
2.28309e-08
-1.77436e-08
2.92123e-08
-5.12294e-08
3.34886e-08
-8.74042e-08
3.61775e-08
-1.25311e-07
3.7909e-08
-1.64374e-07
3.9066e-08
-2.04222e-07
3.98491e-08
-2.44588e-07
4.03659e-08
-2.85267e-07
4.06773e-08
-3.26091e-07
4.08214e-08
-3.6692e-07
4.08259e-08
-4.07639e-07
4.07136e-08
-4.48148e-07
4.05043e-08
-4.8837e-07
4.02162e-08
-5.28241e-07
3.98659e-08
-5.67715e-07
3.9469e-08
-6.06761e-07
3.9042e-08
-6.4537e-07
3.8606e-08
-6.83554e-07
3.81817e-08
-7.2133e-07
3.7776e-08
-7.58719e-07
3.73892e-08
-7.95741e-07
3.70224e-08
-8.32417e-07
3.66771e-08
-8.68772e-07
3.63545e-08
-9.04828e-07
3.60556e-08
-9.40612e-07
3.57814e-08
-9.76147e-07
3.55322e-08
-1.01146e-06
3.53084e-08
-1.04657e-06
3.51097e-08
-1.08151e-06
3.49359e-08
-1.1163e-06
3.47864e-08
-1.15097e-06
3.46602e-08
-1.18552e-06
3.45562e-08
-1.22e-06
3.44729e-08
-1.25441e-06
3.44087e-08
-1.28877e-06
3.43615e-08
-1.3231e-06
3.43293e-08
-1.35741e-06
3.43097e-08
-1.39171e-06
3.43005e-08
-1.42601e-06
3.42992e-08
-1.46031e-06
3.43035e-08
-1.49463e-06
3.43109e-08
-1.52895e-06
3.43187e-08
-1.56327e-06
3.43242e-08
-1.5976e-06
3.43249e-08
-1.63191e-06
3.43177e-08
-1.66622e-06
3.42999e-08
-1.70049e-06
3.42683e-08
-1.73471e-06
3.422e-08
-1.76886e-06
3.41519e-08
-1.80293e-06
3.40609e-08
-1.83688e-06
3.39442e-08
-1.87068e-06
3.37986e-08
-1.9043e-06
3.36211e-08
-1.93771e-06
3.34088e-08
-1.97087e-06
3.31581e-08
-2.00373e-06
3.28657e-08
-2.03626e-06
3.25277e-08
-2.0684e-06
3.21403e-08
-2.1001e-06
3.16999e-08
-2.13131e-06
3.12029e-08
-2.16196e-06
3.0646e-08
-2.19198e-06
3.00257e-08
-2.22132e-06
2.93388e-08
-2.2499e-06
2.85815e-08
-2.27765e-06
2.775e-08
-2.30449e-06
2.68408e-08
-2.33034e-06
2.58506e-08
-2.35512e-06
2.47766e-08
-2.37873e-06
2.36168e-08
-2.4011e-06
2.23693e-08
-2.42213e-06
2.10327e-08
-2.44173e-06
1.96057e-08
-2.45982e-06
1.80875e-08
-2.4763e-06
1.64779e-08
-2.49108e-06
1.47777e-08
-2.50407e-06
1.29887e-08
-2.51519e-06
1.11134e-08
-2.52435e-06
9.15524e-09
-2.53147e-06
7.11816e-09
-2.53647e-06
5.00623e-09
-2.5393e-06
2.82341e-09
-2.53987e-06
5.70999e-10
-2.53814e-06
-1.733e-09
-2.53407e-06
-4.0639e-09
-2.52766e-06
-6.41394e-09
-2.51889e-06
-8.77583e-09
-2.50775e-06
-1.11391e-08
-2.49426e-06
-1.34928e-08
-2.47843e-06
-1.58259e-08
-2.4603e-06
-1.81269e-08
-2.43992e-06
-2.03833e-08
-2.41734e-06
-2.25808e-08
-2.39264e-06
-2.47039e-08
-2.3659e-06
-2.67375e-08
-2.33724e-06
-2.86676e-08
-2.30676e-06
-3.04806e-08
-2.2746e-06
-3.21625e-08
-2.24091e-06
-3.36982e-08
-2.20584e-06
-3.50727e-08
-2.16956e-06
-3.62729e-08
-2.13228e-06
-3.72876e-08
-2.09417e-06
-3.81077e-08
-2.05544e-06
-3.87241e-08
-2.01631e-06
-3.91294e-08
-1.97699e-06
-3.9318e-08
-1.9377e-06
-3.92869e-08
-1.89866e-06
-3.9035e-08
-1.8601e-06
-3.85631e-08
-1.82223e-06
-3.7874e-08
-1.78526e-06
-3.6973e-08
-1.74939e-06
-3.58669e-08
-1.71483e-06
-3.45635e-08
-1.68175e-06
-3.30741e-08
-1.65033e-06
-3.14152e-08
-1.62072e-06
-2.96066e-08
-1.59305e-06
-2.76662e-08
-1.56744e-06
-2.56093e-08
-1.54397e-06
-2.34532e-08
-1.52274e-06
-2.12224e-08
-1.50379e-06
-1.89446e-08
-1.48716e-06
-1.66439e-08
-1.47283e-06
-1.43405e-08
-1.46078e-06
-1.20561e-08
-1.45097e-06
-9.81667e-09
-1.44333e-06
-7.64835e-09
-1.43776e-06
-5.57624e-09
-1.43413e-06
-3.62715e-09
-1.4323e-06
-1.82769e-09
-1.43211e-06
-1.87383e-10
-1.4334e-06
1.29123e-09
-1.43596e-06
2.57808e-09
-1.43959e-06
3.63718e-09
-1.44405e-06
4.45293e-09
-1.44907e-06
5.01649e-09
-1.45439e-06
5.31555e-09
-1.45973e-06
5.33963e-09
-1.46483e-06
5.08971e-09
-1.46939e-06
4.5617e-09
-1.47312e-06
3.73589e-09
-1.47573e-06
2.60934e-09
-1.47693e-06
1.19812e-09
-1.47645e-06
-4.79278e-10
-1.47403e-06
-2.41553e-09
-1.46944e-06
-4.60247e-09
-1.46241e-06
-7.03202e-09
-1.4527e-06
-9.7093e-09
-1.4401e-06
-1.26158e-08
-1.42436e-06
-1.57338e-08
-1.4053e-06
-1.90558e-08
-1.38273e-06
-2.25668e-08
-1.35648e-06
-2.62501e-08
-1.3264e-06
-3.00721e-08
-1.29235e-06
-3.40344e-08
-1.25421e-06
-3.81273e-08
-1.21185e-06
-4.235e-08
-1.16516e-06
-4.66828e-08
-1.11413e-06
-5.10498e-08
-1.05864e-06
-5.54887e-08
-9.98641e-07
-6.00147e-08
-9.34109e-07
-6.45399e-08
-8.65039e-07
-6.90777e-08
-7.9136e-07
-7.36826e-08
-7.13208e-07
-7.8169e-08
-6.30482e-07
-8.27354e-08
-5.43299e-07
-8.71834e-08
-4.51629e-07
-9.16858e-08
-3.55639e-07
-9.59791e-08
-2.55785e-07
-9.98655e-08
-1.51596e-07
-1.04191e-07
-4.38658e-08
-1.07732e-07
6.39307e-08
-1.07788e-07
1.66511e-07
-1.0258e-07
2.60705e-07
-9.41872e-08
-5.72152e-08
3.17935e-07
5.814e-09
-3.13483e-08
-2.51661e-10
-1.31375e-08
-1.36518e-08
5.58412e-09
-3.15695e-08
2.17731e-08
-5.27347e-08
3.55076e-08
-7.67449e-08
4.68428e-08
-1.03334e-07
5.58046e-08
-1.32383e-07
6.25408e-08
-1.63648e-07
6.74449e-08
-1.96711e-07
7.09745e-08
-2.31136e-07
7.34932e-08
-2.66553e-07
7.52657e-08
-3.02663e-07
7.64746e-08
-3.39234e-07
7.72455e-08
-3.76085e-07
7.76682e-08
-4.13075e-07
7.78097e-08
-4.50091e-07
7.7723e-08
-4.87046e-07
7.74522e-08
-5.23872e-07
7.70352e-08
-5.60517e-07
7.65053e-08
-5.96946e-07
7.58924e-08
-6.33131e-07
7.52239e-08
-6.69053e-07
7.45258e-08
-7.04692e-07
7.38196e-08
-7.40036e-07
7.31198e-08
-7.75083e-07
7.24364e-08
-8.09837e-07
7.17771e-08
-8.44308e-07
7.11483e-08
-8.7851e-07
7.05549e-08
-9.12458e-07
7.00006e-08
-9.46169e-07
6.94885e-08
-9.79661e-07
6.90204e-08
-1.01296e-06
6.85976e-08
-1.04607e-06
6.82203e-08
-1.07903e-06
6.78882e-08
-1.11184e-06
6.76004e-08
-1.14454e-06
6.73553e-08
-1.17714e-06
6.71508e-08
-1.20965e-06
6.69841e-08
-1.24209e-06
6.68521e-08
-1.27448e-06
6.67512e-08
-1.30683e-06
6.66777e-08
-1.33915e-06
6.66272e-08
-1.37144e-06
6.65956e-08
-1.40372e-06
6.6578e-08
-1.43599e-06
6.65697e-08
-1.46825e-06
6.65659e-08
-1.50049e-06
6.65615e-08
-1.53272e-06
6.65511e-08
-1.56493e-06
6.65296e-08
-1.5971e-06
6.64913e-08
-1.62924e-06
6.64306e-08
-1.66131e-06
6.6342e-08
-1.69332e-06
6.62195e-08
-1.72523e-06
6.60575e-08
-1.75702e-06
6.58499e-08
-1.78867e-06
6.55909e-08
-1.82015e-06
6.52744e-08
-1.85142e-06
6.48942e-08
-1.88246e-06
6.4444e-08
-1.91322e-06
6.39172e-08
-1.94366e-06
6.3307e-08
-1.97374e-06
6.26067e-08
-2.00341e-06
6.18093e-08
-2.03262e-06
6.09077e-08
-2.06131e-06
5.98952e-08
-2.08943e-06
5.87648e-08
-2.11692e-06
5.75095e-08
-2.1437e-06
5.61223e-08
-2.16971e-06
5.45962e-08
-2.19488e-06
5.29243e-08
-2.21914e-06
5.11002e-08
-2.24241e-06
4.9118e-08
-2.26461e-06
4.69727e-08
-2.28565e-06
4.46599e-08
-2.30545e-06
4.21756e-08
-2.32394e-06
3.9517e-08
-2.34101e-06
3.66821e-08
-2.35659e-06
3.36699e-08
-2.3706e-06
3.04812e-08
-2.38294e-06
2.71181e-08
-2.39354e-06
2.35843e-08
-2.40232e-06
1.9885e-08
-2.40919e-06
1.6027e-08
-2.41409e-06
1.20183e-08
-2.41695e-06
7.86703e-09
-2.41771e-06
3.58224e-09
-2.41632e-06
-8.24589e-10
-2.41274e-06
-5.31631e-09
-2.40695e-06
-9.85466e-09
-2.39894e-06
-1.44254e-08
-2.38871e-06
-1.90116e-08
-2.37625e-06
-2.35938e-08
-2.36159e-06
-2.81509e-08
-2.34476e-06
-3.26603e-08
-2.32579e-06
-3.70975e-08
-2.30474e-06
-4.14367e-08
-2.28167e-06
-4.56503e-08
-2.25667e-06
-4.97103e-08
-2.22982e-06
-5.35886e-08
-2.20123e-06
-5.72576e-08
-2.17102e-06
-6.06894e-08
-2.13933e-06
-6.3856e-08
-2.10631e-06
-6.67294e-08
-2.0721e-06
-6.92833e-08
-2.03688e-06
-7.14939e-08
-2.00083e-06
-7.33398e-08
-1.96414e-06
-7.48023e-08
-1.927e-06
-7.58653e-08
-1.88961e-06
-7.65163e-08
-1.85218e-06
-7.67468e-08
-1.81491e-06
-7.65521e-08
-1.77801e-06
-7.59318e-08
-1.74168e-06
-7.48896e-08
-1.70611e-06
-7.34334e-08
-1.6715e-06
-7.15755e-08
-1.63803e-06
-6.93317e-08
-1.60586e-06
-6.67225e-08
-1.57515e-06
-6.37739e-08
-1.54606e-06
-6.05164e-08
-1.51869e-06
-5.69831e-08
-1.49315e-06
-5.32077e-08
-1.46954e-06
-4.92264e-08
-1.44791e-06
-4.50802e-08
-1.42833e-06
-4.08139e-08
-1.4108e-06
-3.64735e-08
-1.39534e-06
-3.21039e-08
-1.38193e-06
-2.77517e-08
-1.37051e-06
-2.34648e-08
-1.36102e-06
-1.92915e-08
-1.35338e-06
-1.52786e-08
-1.34748e-06
-1.14726e-08
-1.3432e-06
-7.91879e-09
-1.34038e-06
-4.65939e-09
-1.33884e-06
-1.72793e-09
-1.33841e-06
8.56447e-10
-1.3389e-06
3.05677e-09
-1.3401e-06
4.82286e-09
-1.34178e-06
6.12392e-09
-1.3437e-06
6.93615e-09
-1.34561e-06
7.23526e-09
-1.34726e-06
6.99875e-09
-1.34838e-06
6.21523e-09
-1.34871e-06
4.88022e-09
-1.34796e-06
2.98645e-09
-1.34588e-06
5.3651e-10
-1.34224e-06
-2.44179e-09
-1.33679e-06
-5.92815e-09
-1.32927e-06
-9.92381e-09
-1.31944e-06
-1.44191e-08
-1.30708e-06
-1.93939e-08
-1.29195e-06
-2.48315e-08
-1.27385e-06
-3.07091e-08
-1.25257e-06
-3.70052e-08
-1.22792e-06
-4.37062e-08
-1.19973e-06
-5.07713e-08
-1.16783e-06
-5.81553e-08
-1.13209e-06
-6.58287e-08
-1.09237e-06
-7.37678e-08
-1.04856e-06
-8.19565e-08
-1.00053e-06
-9.03906e-08
-9.48177e-07
-9.90184e-08
-8.91467e-07
-1.07759e-07
-8.303e-07
-1.1664e-07
-7.64613e-07
-1.25693e-07
-6.94365e-07
-1.34768e-07
-6.19543e-07
-1.43897e-07
-5.40069e-07
-1.53146e-07
-4.55974e-07
-1.62242e-07
-3.67233e-07
-1.71485e-07
-2.73787e-07
-1.80619e-07
-1.75785e-07
-1.89686e-07
-7.28821e-08
-1.98878e-07
3.42823e-08
-2.07033e-07
1.4396e-07
-2.13872e-07
2.55138e-07
-2.189e-07
3.66527e-07
-2.19193e-07
4.76207e-07
-2.12262e-07
5.78179e-07
-1.96161e-07
-1.55443e-07
6.76394e-07
-1.37214e-08
-1.76345e-08
-3.42329e-08
7.37146e-09
-5.63241e-08
2.76749e-08
-7.90504e-08
4.44989e-08
-1.02418e-07
5.88758e-08
-1.26632e-07
7.1058e-08
-1.51955e-07
8.11286e-08
-1.78619e-07
8.92062e-08
-2.06687e-07
9.55146e-08
-2.36048e-07
1.00337e-07
-2.66503e-07
1.03949e-07
-2.9783e-07
1.06593e-07
-3.2982e-07
1.08465e-07
-3.62293e-07
1.09717e-07
-3.95099e-07
1.10472e-07
-4.28116e-07
1.10824e-07
-4.61247e-07
1.10851e-07
-4.94414e-07
1.10616e-07
-5.27556e-07
1.10174e-07
-5.60623e-07
1.0957e-07
-5.93578e-07
1.08845e-07
-6.26391e-07
1.08035e-07
-6.59035e-07
1.07169e-07
-6.91489e-07
1.06274e-07
-7.2374e-07
1.05371e-07
-7.55779e-07
1.04476e-07
-7.87604e-07
1.03602e-07
-8.19218e-07
1.02761e-07
-8.50626e-07
1.01962e-07
-8.81838e-07
1.0121e-07
-9.12864e-07
1.00512e-07
-9.43717e-07
9.98708e-08
-9.74412e-07
9.92889e-08
-1.00496e-06
9.87675e-08
-1.03538e-06
9.83066e-08
-1.06569e-06
9.79054e-08
-1.0959e-06
9.7562e-08
-1.12602e-06
9.72737e-08
-1.15607e-06
9.7037e-08
-1.18607e-06
9.68476e-08
-1.21602e-06
9.67009e-08
-1.24593e-06
9.65914e-08
-1.27582e-06
9.65134e-08
-1.30568e-06
9.64607e-08
-1.33553e-06
9.64267e-08
-1.36537e-06
9.64047e-08
-1.39519e-06
9.63876e-08
-1.425e-06
9.63681e-08
-1.45479e-06
9.63386e-08
-1.48455e-06
9.62915e-08
-1.51428e-06
9.62187e-08
-1.54396e-06
9.61124e-08
-1.57358e-06
9.59642e-08
-1.60313e-06
9.57658e-08
-1.63259e-06
9.55088e-08
-1.66192e-06
9.51846e-08
-1.69112e-06
9.47846e-08
-1.72015e-06
9.42998e-08
-1.74897e-06
9.37213e-08
-1.77757e-06
9.30397e-08
-1.8059e-06
9.22455e-08
-1.83392e-06
9.13289e-08
-1.86159e-06
9.028e-08
-1.88887e-06
8.90886e-08
-1.91571e-06
8.77448e-08
-1.94205e-06
8.62382e-08
-1.96785e-06
8.45586e-08
-1.99303e-06
8.26957e-08
-2.01755e-06
8.06392e-08
-2.04133e-06
7.83788e-08
-2.06431e-06
7.59045e-08
-2.08642e-06
7.3207e-08
-2.10758e-06
7.02777e-08
-2.12771e-06
6.71089e-08
-2.14675e-06
6.36939e-08
-2.1646e-06
6.00272e-08
-2.18118e-06
5.61044e-08
-2.19642e-06
5.19228e-08
-2.21024e-06
4.74816e-08
-2.22254e-06
4.2782e-08
-2.23325e-06
3.78272e-08
-2.24229e-06
3.26231e-08
-2.24958e-06
2.71775e-08
-2.25506e-06
2.15007e-08
-2.25865e-06
1.56049e-08
-2.26028e-06
9.50326e-09
-2.25991e-06
3.21121e-09
-2.25749e-06
-3.24226e-09
-2.25301e-06
-9.80757e-09
-2.24642e-06
-1.64417e-08
-2.23773e-06
-2.31182e-08
-2.22693e-06
-2.98106e-08
-2.21403e-06
-3.64898e-08
-2.19906e-06
-4.31241e-08
-2.18204e-06
-4.96799e-08
-2.16302e-06
-5.61208e-08
-2.14205e-06
-6.24086e-08
-2.1192e-06
-6.85034e-08
-2.09454e-06
-7.43644e-08
-2.06818e-06
-7.99509e-08
-2.04022e-06
-8.52219e-08
-2.01077e-06
-9.01365e-08
-1.97998e-06
-9.46538e-08
-1.94797e-06
-9.87345e-08
-1.91491e-06
-1.02341e-07
-1.88097e-06
-1.0544e-07
-1.8463e-06
-1.08001e-07
-1.81111e-06
-1.09998e-07
-1.77556e-06
-1.1141e-07
-1.73985e-06
-1.12219e-07
-1.70418e-06
-1.12416e-07
-1.66874e-06
-1.11996e-07
-1.63371e-06
-1.10959e-07
-1.59929e-06
-1.09312e-07
-1.56566e-06
-1.07071e-07
-1.53298e-06
-1.04253e-07
-1.50142e-06
-1.00887e-07
-1.47114e-06
-9.70052e-08
-1.44226e-06
-9.2647e-08
-1.41492e-06
-8.78581e-08
-1.38922e-06
-8.26876e-08
-1.36523e-06
-7.71877e-08
-1.34304e-06
-7.14144e-08
-1.32269e-06
-6.54286e-08
-1.30421e-06
-5.92945e-08
-1.28761e-06
-5.30771e-08
-1.27288e-06
-4.68429e-08
-1.25997e-06
-4.06595e-08
-1.24884e-06
-3.45957e-08
-1.23941e-06
-2.87194e-08
-1.2316e-06
-2.30973e-08
-1.22527e-06
-1.77945e-08
-1.22032e-06
-1.28731e-08
-1.21659e-06
-8.39081e-09
-1.21391e-06
-4.40032e-09
-1.2121e-06
-9.47605e-10
-1.21097e-06
1.92608e-09
-1.21032e-06
4.1722e-09
-1.20994e-06
5.74138e-09
-1.2096e-06
6.59601e-09
-1.20908e-06
6.70475e-09
-1.20811e-06
6.03871e-09
-1.20647e-06
4.57767e-09
-1.2039e-06
2.30968e-09
-1.20017e-06
-7.53212e-10
-1.19504e-06
-4.58953e-09
-1.18829e-06
-9.19455e-09
-1.17966e-06
-1.45571e-08
-1.16893e-06
-2.06605e-08
-1.15586e-06
-2.74865e-08
-1.14025e-06
-3.5008e-08
-1.12189e-06
-4.31964e-08
-1.10057e-06
-5.20224e-08
-1.07612e-06
-6.14577e-08
-1.04834e-06
-7.14792e-08
-1.01708e-06
-8.20319e-08
-9.8217e-07
-9.30538e-08
-9.43492e-07
-1.04502e-07
-9.00916e-07
-1.16339e-07
-8.54329e-07
-1.28545e-07
-8.03609e-07
-1.41117e-07
-7.48654e-07
-1.53972e-07
-6.89414e-07
-1.67006e-07
-6.25805e-07
-1.80252e-07
-5.5775e-07
-1.93753e-07
-4.85192e-07
-2.07328e-07
-4.08117e-07
-2.2098e-07
-3.26444e-07
-2.34823e-07
-2.40125e-07
-2.4856e-07
-1.49197e-07
-2.62417e-07
-5.34142e-08
-2.76398e-07
4.6795e-08
-2.89898e-07
1.50614e-07
-3.02696e-07
2.57683e-07
-3.14102e-07
3.67281e-07
-3.23468e-07
4.78415e-07
-3.30033e-07
5.90278e-07
-3.31054e-07
7.01823e-07
-3.23805e-07
8.10812e-07
-3.05148e-07
-2.66503e-07
9.2187e-07
-2.52283e-08
7.58897e-09
-5.22242e-08
3.4371e-08
-7.83905e-08
5.38428e-08
-1.03837e-07
6.99458e-08
-1.28816e-07
8.38568e-08
-1.53642e-07
9.5885e-08
-1.78637e-07
1.06126e-07
-2.04084e-07
1.14655e-07
-2.30161e-07
1.21594e-07
-2.56936e-07
1.27112e-07
-2.84385e-07
1.31399e-07
-3.12435e-07
1.34644e-07
-3.40989e-07
1.37018e-07
-3.69943e-07
1.38671e-07
-3.99201e-07
1.39729e-07
-4.28678e-07
1.403e-07
-4.58301e-07
1.40472e-07
-4.88007e-07
1.40321e-07
-5.17746e-07
1.39911e-07
-5.47474e-07
1.39296e-07
-5.77157e-07
1.38526e-07
-6.06765e-07
1.37641e-07
-6.36274e-07
1.36677e-07
-6.65663e-07
1.35664e-07
-6.9492e-07
1.34627e-07
-7.24033e-07
1.33589e-07
-7.52999e-07
1.32567e-07
-7.81814e-07
1.31576e-07
-8.1048e-07
1.30627e-07
-8.39003e-07
1.29731e-07
-8.67388e-07
1.28895e-07
-8.95643e-07
1.28124e-07
-9.23778e-07
1.27421e-07
-9.51802e-07
1.2679e-07
-9.79728e-07
1.2623e-07
-1.00757e-06
1.25742e-07
-1.03533e-06
1.25323e-07
-1.06302e-06
1.2497e-07
-1.09066e-06
1.24679e-07
-1.11826e-06
1.24445e-07
-1.14582e-06
1.24263e-07
-1.17336e-06
1.24126e-07
-1.20087e-06
1.24027e-07
-1.22837e-06
1.23958e-07
-1.25586e-06
1.23911e-07
-1.28333e-06
1.23878e-07
-1.31079e-06
1.23849e-07
-1.33824e-06
1.23816e-07
-1.36567e-06
1.23768e-07
-1.39307e-06
1.23696e-07
-1.42045e-06
1.2359e-07
-1.44777e-06
1.23439e-07
-1.47504e-06
1.23234e-07
-1.50224e-06
1.22962e-07
-1.52935e-06
1.22614e-07
-1.55635e-06
1.22179e-07
-1.58321e-06
1.21645e-07
-1.60991e-06
1.21001e-07
-1.63642e-06
1.20234e-07
-1.66272e-06
1.19334e-07
-1.68876e-06
1.18288e-07
-1.71451e-06
1.17082e-07
-1.73994e-06
1.15705e-07
-1.76499e-06
1.14142e-07
-1.78963e-06
1.12382e-07
-1.8138e-06
1.1041e-07
-1.83745e-06
1.08212e-07
-1.86053e-06
1.05776e-07
-1.88298e-06
1.03087e-07
-1.90474e-06
1.00133e-07
-1.92573e-06
9.68995e-08
-1.9459e-06
9.33748e-08
-1.96517e-06
8.95472e-08
-1.98347e-06
8.54064e-08
-2.00071e-06
8.09433e-08
-2.01684e-06
7.61505e-08
-2.03175e-06
7.10221e-08
-2.04539e-06
6.55547e-08
-2.05765e-06
5.97471e-08
-2.06847e-06
5.3601e-08
-2.07777e-06
4.71208e-08
-2.08546e-06
4.0314e-08
-2.09147e-06
3.31915e-08
-2.09574e-06
2.57674e-08
-2.09819e-06
1.80585e-08
-2.09877e-06
1.0084e-08
-2.09743e-06
1.86329e-09
-2.09412e-06
-6.55451e-09
-2.08882e-06
-1.51045e-08
-2.08152e-06
-2.37429e-08
-2.07221e-06
-3.24331e-08
-2.06088e-06
-4.11382e-08
-2.04755e-06
-4.98193e-08
-2.03224e-06
-5.84343e-08
-2.01498e-06
-6.69386e-08
-1.99582e-06
-7.52842e-08
-1.97481e-06
-8.34211e-08
-1.95201e-06
-9.12971e-08
-1.92752e-06
-9.88593e-08
-1.90141e-06
-1.06054e-07
-1.87381e-06
-1.12828e-07
-1.84482e-06
-1.19128e-07
-1.81457e-06
-1.24901e-07
-1.78321e-06
-1.30095e-07
-1.75089e-06
-1.34665e-07
-1.71776e-06
-1.38566e-07
-1.684e-06
-1.41761e-07