/*--------------------------------*- C++ -*----------------------------------*\
| =========                 |                                                 |
| \\      /  F ield         | OpenFOAM: The Open Source CFD Toolbox           |
|  \\    /   O peration     | Version:  2.2.x                                 |
|   \\  /    A nd           | Web:      www.OpenFOAM.org                      |
|    \\/     M anipulation  |                                                 |
\*---------------------------------------------------------------------------*/
FoamFile
{
    version     2.0;
    format      ascii;
    class       volVectorField;
    location    "450";
    object      U;
}
// * * * * * * * * * * * * * * * * * * * * * * * * * * * * * * * * * * * * * //

dimensions      [0 1 -1 0 0 0 0];

internalField   nonuniform List<vector> 
12225
(
(9.83972 -1.23842 0)
(9.73874 -0.731492 0)
(9.53703 -0.467339 0)
(9.32327 -0.307415 0)
(9.12453 -0.205969 0)
(8.94101 -0.139611 0)
(8.771 -0.09497 0)
(8.61373 -0.0642843 0)
(8.46844 -0.0428525 0)
(8.3342 -0.0276985 0)
(8.21009 -0.0168813 0)
(8.09525 -0.00910699 0)
(7.98894 -0.00349614 0)
(7.89047 0.00056336 0)
(7.79914 0.00352834 0)
(7.71414 0.00592517 0)
(7.62961 0.00931109 0)
(7.5659 -0.0198064 0)
(10.0335 0.447386 0)
(10.0226 0.426922 0)
(9.98839 0.34022 0)
(9.94303 0.270958 0)
(9.89673 0.217776 0)
(9.84876 0.177181 0)
(9.79841 0.146618 0)
(9.7464 0.123619 0)
(9.69359 0.10616 0)
(9.64067 0.092749 0)
(9.58814 0.0823142 0)
(9.53643 0.0740817 0)
(9.48586 0.0674917 0)
(9.4367 0.062148 0)
(9.38912 0.0578132 0)
(9.34337 0.0546036 0)
(9.30098 0.0536757 0)
(9.26772 0.0673078 0)
(9.9929 0.02677 0)
(10.0023 -0.00878872 0)
(10.0179 -0.0276112 0)
(10.0248 -0.0224884 0)
(10.028 -0.0111397 0)
(10.0283 0.000161881 0)
(10.0258 0.0102234 0)
(10.0208 0.0187372 0)
(10.014 0.0256693 0)
(10.006 0.0311621 0)
(9.99709 0.0354253 0)
(9.98745 0.038667 0)
(9.97736 0.0410724 0)
(9.96703 0.0428081 0)
(9.95665 0.0440536 0)
(9.94662 0.0450755 0)
(9.9381 0.0459758 0)
(9.93145 0.0435301 0)
(9.99998 0.0196638 0)
(10.0124 0.0433279 0)
(10.0308 0.0556337 0)
(10.0412 0.0652228 0)
(10.0485 0.0705723 0)
(10.0546 0.0722845 0)
(10.0594 0.0720371 0)
(10.0632 0.07086 0)
(10.0663 0.0692428 0)
(10.0689 0.0674393 0)
(10.071 0.0655879 0)
(10.0729 0.0637557 0)
(10.0745 0.0619671 0)
(10.0759 0.0602268 0)
(10.0774 0.0585358 0)
(10.0792 0.0568718 0)
(10.0819 0.0549262 0)
(10.0856 0.0510034 0)
(10.0023 0.0186563 0)
(10.0144 0.0407647 0)
(10.0302 0.0467525 0)
(10.0405 0.0491099 0)
(10.0486 0.0504866 0)
(10.0563 0.0509855 0)
(10.0632 0.0511211 0)
(10.0694 0.0511891 0)
(10.0751 0.051229 0)
(10.0804 0.0512122 0)
(10.0855 0.0511103 0)
(10.0902 0.0508991 0)
(10.0948 0.0505555 0)
(10.0994 0.0500549 0)
(10.1039 0.04936 0)
(10.1087 0.0483696 0)
(10.1138 0.046742 0)
(10.1191 0.0434777 0)
(10.0025 0.0188944 0)
(10.0131 0.0369409 0)
(10.027 0.0431296 0)
(10.0374 0.0464145 0)
(10.046 0.0490924 0)
(10.0541 0.0508557 0)
(10.0616 0.0518956 0)
(10.0685 0.0524839 0)
(10.0749 0.0527433 0)
(10.081 0.0527287 0)
(10.0868 0.052478 0)
(10.0924 0.0520158 0)
(10.0978 0.0513504 0)
(10.1032 0.0504712 0)
(10.1086 0.0493359 0)
(10.1141 0.047833 0)
(10.1196 0.0457052 0)
(10.1252 0.0424912 0)
(10.0022 0.0165897 0)
(10.0111 0.0316589 0)
(10.0233 0.0385996 0)
(10.0335 0.0425331 0)
(10.0422 0.0454271 0)
(10.0504 0.0472707 0)
(10.058 0.0482971 0)
(10.0651 0.0488124 0)
(10.0718 0.0489823 0)
(10.0781 0.0488835 0)
(10.0842 0.0485587 0)
(10.0901 0.0480289 0)
(10.0959 0.0472947 0)
(10.1016 0.0463351 0)
(10.1072 0.0450984 0)
(10.1128 0.0434826 0)
(10.1182 0.041314 0)
(10.1235 0.0383901 0)
(10.0019 0.0146318 0)
(10.0095 0.0279941 0)
(10.0203 0.0352328 0)
(10.03 0.0394306 0)
(10.0385 0.0423736 0)
(10.0466 0.0442843 0)
(10.0542 0.0453963 0)
(10.0614 0.0459834 0)
(10.0681 0.0462044 0)
(10.0746 0.046136 0)
(10.0808 0.0458198 0)
(10.0868 0.0452762 0)
(10.0927 0.0445057 0)
(10.0984 0.0434883 0)
(10.104 0.0421795 0)
(10.1094 0.0405025 0)
(10.1147 0.0383515 0)
(10.1198 0.0356594 0)
(10.0017 0.0130415 0)
(10.0083 0.0250231 0)
(10.0178 0.0321542 0)
(10.0269 0.036444 0)
(10.0352 0.039411 0)
(10.0431 0.0413679 0)
(10.0506 0.0425395 0)
(10.0578 0.0431701 0)
(10.0645 0.0434121 0)
(10.071 0.0433453 0)
(10.0772 0.0430141 0)
(10.0833 0.0424408 0)
(10.0891 0.0416286 0)
(10.0948 0.040562 0)
(10.1003 0.0392061 0)
(10.1057 0.0375075 0)
(10.1108 0.0354046 0)
(10.1157 0.0329 0)
(10.0015 0.0114806 0)
(10.0071 0.0220571 0)
(10.0154 0.0288662 0)
(10.0238 0.0331479 0)
(10.0317 0.0361013 0)
(10.0394 0.0380745 0)
(10.0467 0.0392823 0)
(10.0537 0.0399406 0)
(10.0604 0.0401942 0)
(10.0668 0.0401243 0)
(10.073 0.0397776 0)
(10.079 0.0391788 0)
(10.0848 0.0383344 0)
(10.0904 0.0372354 0)
(10.0958 0.0358596 0)
(10.101 0.0341763 0)
(10.1059 0.0321595 0)
(10.1106 0.029851 0)
(10.0013 0.00992517 0)
(10.006 0.0190946 0)
(10.0132 0.0254186 0)
(10.0208 0.0295729 0)
(10.0282 0.0324433 0)
(10.0355 0.0343786 0)
(10.0425 0.0355818 0)
(10.0493 0.0362403 0)
(10.0559 0.0364876 0)
(10.0622 0.0364038 0)
(10.0683 0.0360366 0)
(10.0741 0.0354131 0)
(10.0798 0.0345442 0)
(10.0853 0.0334288 0)
(10.0906 0.032058 0)
(10.0956 0.0304212 0)
(10.1003 0.028518 0)
(10.1047 0.026407 0)
(10.0011 0.0083879 0)
(10.005 0.0161737 0)
(10.0112 0.0218593 0)
(10.018 0.0257501 0)
(10.0249 0.0284549 0)
(10.0317 0.0302898 0)
(10.0384 0.0314405 0)
(10.0449 0.0320659 0)
(10.0512 0.0322847 0)
(10.0573 0.0321735 0)
(10.0632 0.03178 0)
(10.0689 0.0311334 0)
(10.0744 0.0302496 0)
(10.0797 0.0291358 0)
(10.0847 0.027795 0)
(10.0895 0.0262322 0)
(10.094 0.024463 0)
(10.0983 0.0225489 0)
(10.0009 0.00688426 0)
(10.0042 0.0133137 0)
(10.0094 0.0182237 0)
(10.0155 0.0217088 0)
(10.0217 0.0241538 0)
(10.0281 0.0258165 0)
(10.0343 0.0268584 0)
(10.0405 0.0274103 0)
(10.0465 0.0275738 0)
(10.0524 0.0274191 0)
(10.0581 0.0269925 0)
(10.0636 0.0263248 0)
(10.0688 0.0254365 0)
(10.0739 0.0243417 0)
(10.0787 0.0230526 0)
(10.0832 0.0215843 0)
(10.0875 0.0199601 0)
(10.0915 0.0182372 0)
(10.0008 0.00542078 0)
(10.0035 0.0105162 0)
(10.0079 0.0145378 0)
(10.0133 0.0174783 0)
(10.0189 0.0195586 0)
(10.0247 0.0209677 0)
(10.0306 0.0218359 0)
(10.0364 0.0222671 0)
(10.0421 0.0223441 0)
(10.0477 0.0221279 0)
(10.0531 0.0216613 0)
(10.0583 0.0209753 0)
(10.0633 0.020093 0)
(10.0681 0.0190331 0)
(10.0726 0.0178135 0)
(10.0769 0.0164541 0)
(10.0809 0.0149799 0)
(10.0848 0.0134407 0)
(10.0006 0.00399337 0)
(10.003 0.00776688 0)
(10.0067 0.0108094 0)
(10.0114 0.0130764 0)
(10.0165 0.0146813 0)
(10.0219 0.0157474 0)
(10.0273 0.0163703 0)
(10.0327 0.0166272 0)
(10.0381 0.0165813 0)
(10.0434 0.0162819 0)
(10.0485 0.015766 0)
(10.0534 0.0150622 0)
(10.0581 0.0141935 0)
(10.0627 0.0131803 0)
(10.0669 0.0120418 0)
(10.071 0.0107984 0)
(10.0748 0.00947354 0)
(10.0785 0.00810842 0)
(10.0006 0.00258501 0)
(10.0025 0.00503096 0)
(10.0058 0.00701569 0)
(10.0099 0.00849219 0)
(10.0146 0.0095103 0)
(10.0195 0.0101397 0)
(10.0245 0.010441 0)
(10.0296 0.0104652 0)
(10.0346 0.0102557 0)
(10.0396 0.00984766 0)
(10.0444 0.0092696 0)
(10.0491 0.00854476 0)
(10.0535 0.00769312 0)
(10.0578 0.00673292 0)
(10.0619 0.00568174 0)
(10.0657 0.00455736 0)
(10.0693 0.00337901 0)
(10.0728 0.00217954 0)
(10.0005 0.00116407 0)
(10.0022 0.00224998 0)
(10.0052 0.00309818 0)
(10.0089 0.00367656 0)
(10.0131 0.00400094 0)
(10.0177 0.00410062 0)
(10.0224 0.0040038 0)
(10.0272 0.00373584 0)
(10.0319 0.00331927 0)
(10.0366 0.00277362 0)
(10.0412 0.00211582 0)
(10.0456 0.00136077 0)
(10.0498 0.00052211 0)
(10.0539 -0.000387124 0)
(10.0578 -0.00135412 0)
(10.0614 -0.00236602 0)
(10.0649 -0.003409 0)
(10.0682 -0.00445752 0)
(10.0005 -0.000232785 0)
(10.0021 -0.000496059 0)
(10.0049 -0.00080315 0)
(10.0084 -0.00116285 0)
(10.0124 -0.00157744 0)
(10.0168 -0.00204934 0)
(10.0213 -0.00257982 0)
(10.0259 -0.00316807 0)
(10.0305 -0.00381179 0)
(10.035 -0.00450781 0)
(10.0393 -0.00525237 0)
(10.0436 -0.00604096 0)
(10.0477 -0.0068683 0)
(10.0516 -0.00772843 0)
(10.0553 -0.00861479 0)
(10.0588 -0.00952033 0)
(10.0621 -0.0104369 0)
(10.0654 -0.0113463 0)
(10.0005 -0.00152166 0)
(10.0021 -0.00303851 0)
(10.0049 -0.00442599 0)
(10.0084 -0.00566115 0)
(10.0125 -0.00676094 0)
(10.0168 -0.00775967 0)
(10.0213 -0.00868733 0)
(10.0258 -0.00956615 0)
(10.0303 -0.0104134 0)
(10.0348 -0.0112424 0)
(10.0391 -0.0120623 0)
(10.0432 -0.0128793 0)
(10.0472 -0.0136965 0)
(10.0511 -0.0145152 0)
(10.0547 -0.0153348 0)
(10.0581 -0.0161539 0)
(10.0614 -0.0169692 0)
(10.0646 -0.0177685 0)
(10.0005 -0.00270384 0)
(10.0022 -0.00538471 0)
(10.0052 -0.0077655 0)
(10.0089 -0.00977756 0)
(10.0131 -0.0114654 0)
(10.0176 -0.0129063 0)
(10.0221 -0.0141598 0)
(10.0267 -0.0152698 0)
(10.0313 -0.0162723 0)
(10.0357 -0.0171958 0)
(10.04 -0.0180616 0)
(10.0442 -0.018885 0)
(10.0481 -0.0196767 0)
(10.0519 -0.0204443 0)
(10.0555 -0.0211928 0)
(10.0589 -0.0219252 0)
(10.0621 -0.0226421 0)
(10.0653 -0.0233357 0)
(10.0005 -0.00382399 0)
(10.0024 -0.00765022 0)
(10.0056 -0.0109808 0)
(10.0097 -0.01368 0)
(10.0142 -0.0158616 0)
(10.0189 -0.0176663 0)
(10.0237 -0.0191814 0)
(10.0284 -0.0204707 0)
(10.033 -0.0215892 0)
(10.0375 -0.0225803 0)
(10.0419 -0.0234757 0)
(10.0461 -0.0242984 0)
(10.0501 -0.0250653 0)
(10.0538 -0.0257892 0)
(10.0574 -0.0264795 0)
(10.0608 -0.0271436 0)
(10.064 -0.0277864 0)
(10.0672 -0.0284055 0)
(10.0005 -0.00488529 0)
(10.0026 -0.00991231 0)
(10.0063 -0.0141755 0)
(10.0109 -0.0174533 0)
(10.0157 -0.0200167 0)
(10.0207 -0.0220921 0)
(10.0257 -0.023787 0)
(10.0306 -0.0251834 0)
(10.0354 -0.0263557 0)
(10.04 -0.0273606 0)
(10.0444 -0.0282384 0)
(10.0486 -0.0290184 0)
(10.0526 -0.0297232 0)
(10.0564 -0.03037 0)
(10.06 -0.0309726 0)
(10.0634 -0.0315418 0)
(10.0665 -0.0320854 0)
(10.0696 -0.0326035 0)
(10.0005 -0.00585479 0)
(10.0027 -0.0122483 0)
(10.0071 -0.0174504 0)
(10.0123 -0.0212085 0)
(10.0176 -0.0240874 0)
(10.0229 -0.0263889 0)
(10.0281 -0.0282276 0)
(10.0332 -0.0297127 0)
(10.038 -0.0309407 0)
(10.0427 -0.0319768 0)
(10.0472 -0.032864 0)
(10.0515 -0.0336338 0)
(10.0555 -0.0343105 0)
(10.0593 -0.0349134 0)
(10.0628 -0.0354589 0)
(10.0662 -0.0359619 0)
(10.0693 -0.0364369 0)
(10.0724 -0.0368962 0)
(10.0002 -0.00665746 0)
(10.0027 -0.0147071 0)
(10.0079 -0.0206429 0)
(10.0138 -0.0246053 0)
(10.0195 -0.0276536 0)
(10.025 -0.0300496 0)
(10.0305 -0.0318744 0)
(10.0357 -0.0332823 0)
(10.0406 -0.0344068 0)
(10.0453 -0.0353289 0)
(10.0498 -0.0360992 0)
(10.0541 -0.0367539 0)
(10.0581 -0.037319 0)
(10.0618 -0.037814 0)
(10.0653 -0.0382545 0)
(10.0686 -0.0386551 0)
(10.0717 -0.0390299 0)
(10.0746 -0.0393895 0)
(9.99982 -0.00724693 0)
(10.0023 -0.0181791 0)
(10.0087 -0.0247571 0)
(10.0153 -0.0287038 0)
(10.0212 -0.0320048 0)
(10.027 -0.0347371 0)
(10.0326 -0.0368554 0)
(10.0378 -0.0385002 0)
(10.0428 -0.0397971 0)
(10.0475 -0.0408217 0)
(10.0519 -0.0416288 0)
(10.056 -0.0422634 0)
(10.0599 -0.0427609 0)
(10.0635 -0.0431487 0)
(10.0669 -0.0434492 0)
(10.0701 -0.0436841 0)
(10.073 -0.0438818 0)
(10.0758 -0.0440861 0)
(9.9984 -0.00503345 0)
(10.0007 -0.0203191 0)
(10.0088 -0.0271517 0)
(10.0159 -0.029876 0)
(10.0217 -0.0318403 0)
(10.0275 -0.0333614 0)
(10.033 -0.0345786 0)
(10.0382 -0.0356736 0)
(10.0431 -0.0367068 0)
(10.0477 -0.0376739 0)
(10.052 -0.0385653 0)
(10.0559 -0.0393763 0)
(10.0596 -0.0401044 0)
(10.0631 -0.0407476 0)
(10.0662 -0.041305 0)
(10.0691 -0.0417785 0)
(10.0717 -0.0421789 0)
(10.074 -0.0425322 0)
(9.99478 -0.003197 0)
(9.99581 -0.0257009 0)
(10.0072 -0.0395 0)
(10.0156 -0.0487788 0)
(10.0216 -0.0546998 0)
(10.0271 -0.0576903 0)
(10.032 -0.0588521 0)
(10.0365 -0.0590373 0)
(10.0405 -0.0586913 0)
(10.0442 -0.0580524 0)
(10.0475 -0.0572663 0)
(10.0506 -0.0564221 0)
(10.0534 -0.05557 0)
(10.0559 -0.0547335 0)
(10.0581 -0.0539174 0)
(10.06 -0.0531134 0)
(10.0617 -0.0523154 0)
(10.0632 -0.0515318 0)
(9.98519 0.00576037 0)
(9.98186 0.0248518 0)
(9.99407 0.036487 0)
(10.0036 0.0321055 0)
(10.0107 0.0222625 0)
(10.0166 0.012231 0)
(10.0209 0.0030624 0)
(10.0237 -0.00504874 0)
(10.0255 -0.0120331 0)
(10.0264 -0.0179324 0)
(10.0266 -0.0228597 0)
(10.0262 -0.0269465 0)
(10.0253 -0.0303166 0)
(10.024 -0.0330756 0)
(10.0223 -0.0353062 0)
(10.0202 -0.0370584 0)
(10.0179 -0.038348 0)
(10.0147 -0.0390698 0)
(10.0137 -0.317346 0)
(10.0101 -0.326335 0)
(9.99891 -0.271537 0)
(9.98276 -0.224909 0)
(9.96823 -0.188191 0)
(9.9542 -0.158871 0)
(9.93904 -0.135807 0)
(9.92244 -0.117802 0)
(9.90463 -0.103688 0)
(9.88581 -0.0925316 0)
(9.8662 -0.0836375 0)
(9.84597 -0.0764849 0)
(9.82532 -0.0706794 0)
(9.80442 -0.0659178 0)
(9.78346 -0.0619597 0)
(9.76256 -0.0585933 0)
(9.74194 -0.0555898 0)
(9.72093 -0.0523336 0)
(9.95412 0.913091 0)
(9.95405 0.560999 0)
(9.86622 0.375411 0)
(9.75282 0.258519 0)
(9.63872 0.180482 0)
(9.52756 0.126924 0)
(9.41964 0.0891556 0)
(9.31572 0.0619464 0)
(9.21645 0.0420561 0)
(9.12208 0.0273641 0)
(9.03261 0.0164263 0)
(8.94797 0.00823675 0)
(8.86799 0.00208189 0)
(8.79252 -0.0025507 0)
(8.72135 -0.00603098 0)
(8.65431 -0.0086193 0)
(8.59146 -0.0104606 0)
(8.53086 -0.0114 0)
(0.013645 -0.0355487 0)
(0.0325857 -0.0329014 0)
(0.0447313 -0.0197679 0)
(0.04731 -0.00375894 0)
(0.0389273 0.0121474 0)
(0.0224812 0.0257762 0)
(-0.00136048 0.0360984 -3.37291e-19)
(-0.029984 0.0418064 2.99165e-19)
(-0.0609322 0.0442355 0)
(-0.0939201 0.0451863 2.23269e-19)
(-0.128181 0.045475 0)
(-0.163305 0.0454282 0)
(-0.199025 0.0451766 0)
(-0.23514 0.0447755 -1.45481e-19)
(-0.271489 0.0442533 0)
(-0.307936 0.0436295 0)
(-0.34437 0.0429215 1.15497e-19)
(-0.380694 0.0421456 0)
(-0.416828 0.0413175 0)
(-0.452711 0.0404521 0)
(-0.488303 0.0395661 -9.14448e-20)
(-0.52358 0.0386808 0)
(-0.558487 0.0378202 -8.31913e-20)
(-0.59304 0.0370088 0)
(-0.627267 0.0362493 0)
(-0.661181 0.0355349 -7.3609e-20)
(-0.694798 0.0348621 0)
(-0.728138 0.0342288 6.85594e-20)
(-0.761219 0.0336337 0)
(-0.794062 0.0330755 -6.42826e-20)
(-0.826689 0.0325532 0)
(-0.859121 0.0320653 0)
(-0.891382 0.0316106 0)
(-0.923495 0.0311877 0)
(-0.955481 0.0307949 0)
(-0.987363 0.0304306 5.45749e-20)
(-1.01916 0.030093 0)
(-1.0509 0.02978 -1.04113e-19)
(-1.0826 0.0294896 0)
(-1.11428 0.0292195 9.95808e-20)
(-1.14595 0.0289674 0)
(-1.17763 0.028731 0)
(-1.20934 0.028508 -9.35492e-20)
(-1.24107 0.0282962 0)
(-1.27285 0.0280932 -8.9947e-20)
(-1.30467 0.0278971 8.82529e-20)
(-1.33655 0.0277056 0)
(-1.36848 0.0275166 8.50539e-20)
(-1.40047 0.027328 8.35405e-20)
(-1.43251 0.0271378 0)
(-1.4646 0.0269439 0)
(-1.49673 0.026744 0)
(-1.52888 0.0265363 0)
(-1.56106 0.0263185 0)
(-1.59323 0.0260888 -7.54543e-20)
(-1.62539 0.0258453 0)
(-1.6575 0.0255861 7.30746e-20)
(-1.68955 0.0253094 0)
(-1.72151 0.0250134 0)
(-1.75335 0.0246961 -6.97435e-20)
(-1.78503 0.0243557 0)
(-1.81652 0.0239901 6.76619e-20)
(-1.84778 0.0235973 0)
(-1.87877 0.0231756 0)
(-1.90943 0.0227229 0)
(-1.93972 0.0222376 -6.37772e-20)
(-1.96959 0.0217181 0)
(-1.99897 0.0211627 0)
(-2.02781 0.0205699 -6.1063e-20)
(-2.05605 0.0199378 0)
(-2.08361 0.0192648 -5.9328e-20)
(-2.11042 0.0185494 0)
(-2.13642 0.0177901 0)
(-2.16151 0.0169861 0)
(-2.18563 0.0161367 5.59885e-20)
(-2.20869 0.0152415 0)
(-2.23061 0.0143004 0)
(-2.2513 0.0133131 5.3555e-20)
(-2.27067 0.0122799 5.27501e-20)
(-2.28863 0.011201 0)
(-2.30511 0.0100775 5.11411e-20)
(-2.32 0.00891081 0)
(-2.33323 0.00770269 9.90481e-20)
(-2.3447 0.00645535 0)
(-2.35435 0.00517115 9.57764e-20)
(-2.3621 0.00385217 0)
(-2.36787 0.00249943 -9.24481e-20)
(-2.3716 0.00111536 0)
(-2.37318 -0.000282481 0)
(-2.37262 -0.00167974 0)
(-2.36988 -0.00307677 8.5366e-20)
(-2.36493 -0.00447147 0)
(-2.35777 -0.00585845 -8.16182e-20)
(-2.34838 -0.00723193 0)
(-2.33679 -0.00858587 7.77349e-20)
(-2.323 -0.00991387 7.57391e-20)
(-2.30705 -0.0112089 7.37062e-20)
(-2.28897 -0.0124634 0)
(-2.26883 -0.013669 0)
(-2.2467 -0.0148178 0)
(-2.22266 -0.0159022 0)
(-2.19681 -0.0169148 0)
(-2.16927 -0.0178484 0)
(-2.14016 -0.0186953 0)
(-2.10962 -0.0194477 0)
(-2.07782 -0.0200985 -5.37571e-20)
(-2.04491 -0.0206415 -5.13774e-20)
(-2.01107 -0.0210714 0)
(-1.97649 -0.0213836 0)
(-1.94137 -0.0215742 0)
(-1.90592 -0.0216404 -4.16411e-20)
(-1.87034 -0.0215805 0)
(-1.83484 -0.0213942 0)
(-1.79965 -0.0210826 0)
(-1.76496 -0.0206476 0)
(-1.73099 -0.0200923 2.92656e-20)
(-1.69794 -0.0194205 0)
(-1.666 -0.0186376 0)
(-1.63536 -0.0177508 -2.19468e-20)
(-1.60621 -0.0167694 1.95545e-20)
(-1.57869 -0.0157041 0)
(-1.55295 -0.0145656 1.48698e-20)
(-1.52912 -0.0133646 0)
(-1.5073 -0.0121123 -1.03479e-20)
(-1.4876 -0.0108217 0)
(-1.47008 -0.00950624 0)
(-1.45478 -0.0081796 0)
(-1.44172 -0.00685515 0)
(-1.4309 -0.00554696 0)
(-1.4223 -0.00426982 -3.9779e-21)
(-1.41586 -0.00303818 -7.70833e-21)
(-1.4115 -0.0018655 0)
(-1.40914 -0.000764295 0)
(-1.40864 0.0002523 0)
(-1.40986 0.00117163 2.16913e-20)
(-1.41264 0.00199855 0)
(-1.41682 0.00272829 0)
(-1.42221 0.00334176 0)
(-1.42856 0.0038333 3.47378e-20)
(-1.43564 0.00420015 -3.80012e-20)
(-1.44319 0.00443971 0)
(-1.45095 0.00454845 0)
(-1.45864 0.00452221 -4.8202e-20)
(-1.46598 0.00435798 -5.18372e-20)
(-1.47269 0.00405804 0)
(-1.47845 0.00363153 0)
(-1.48297 0.00308369 6.39164e-20)
(-1.48594 0.00241868 -6.84304e-20)
(-1.48713 0.00164658 0)
(-1.48626 0.000771961 0)
(-1.48306 -0.000205207 -8.39625e-20)
(-1.47728 -0.00128069 0)
(-1.46865 -0.00244889 0)
(-1.45693 -0.00370553 -1.03428e-19)
(-1.44191 -0.0050431 0)
(-1.42334 -0.00645519 -1.19261e-19)
(-1.40104 -0.00793758 0)
(-1.37482 -0.00948431 0)
(-1.34452 -0.0110928 0)
(-1.30998 -0.0127633 1.60119e-19)
(-1.27102 -0.0144998 0)
(-1.22753 -0.0162852 0)
(-1.1794 -0.0181088 0)
(-1.12652 -0.0199983 0)
(-1.06879 -0.0219501 0)
(-1.00616 -0.0239365 0)
(-0.938554 -0.0259917 2.7914e-19)
(-0.865905 -0.0280987 3.04056e-19)
(-0.78822 -0.0302259 0)
(-0.705403 -0.032456 0)
(-0.617584 -0.034767 0)
(-0.52458 -0.0372847 -4.39442e-19)
(-0.426909 -0.0400495 0)
(-0.323414 -0.0430574 1.0817e-18)
(-0.216139 -0.0462488 -1.21068e-18)
(-0.106847 -0.0486496 -1.36612e-18)
(0.0131628 -0.0482262 1.42769e-18)
(0.122415 -0.0445494 -1.36114e-18)
(0.238777 -0.0399971 1.29941e-18)
(0.285593 -0.0222497 0)
(0.00328863 -0.0628402 0)
(0.0039624 -0.0387579 0)
(-0.0051407 -0.00755311 2.75135e-19)
(-0.0191629 0.0209453 0)
(-0.0364623 0.0448959 -1.78988e-19)
(-0.0565542 0.0639131 -1.62517e-19)
(-0.0790768 0.0780727 -7.55649e-20)
(-0.103855 0.0878238 -7.12117e-20)
(-0.130704 0.094203 0)
(-0.159363 0.0982869 -6.35499e-20)
(-0.189441 0.100819 0)
(-0.220578 0.10229 0)
(-0.252479 0.103002 1.08047e-19)
(-0.284911 0.103147 5.14803e-20)
(-0.317697 0.102849 -9.7953e-20)
(-0.350694 0.102198 -9.35683e-20)
(-0.383793 0.101266 -4.48842e-20)
(-0.416906 0.10011 0)
(-0.449965 0.0987827 0)
(-0.482919 0.0973277 0)
(-0.515729 0.0957857 -3.83389e-20)
(-0.548371 0.0941954 0)
(-0.580822 0.0925977 1.08147e-19)
(-0.613065 0.0910247 0)
(-0.645084 0.0894918 0)
(-0.676876 0.0880075 3.31618e-20)
(-0.708441 0.0865779 0)
(-0.739785 0.0852075 -3.15408e-20)
(-0.77092 0.0838999 -6.14504e-20)
(-0.801858 0.0826575 3.01339e-20)
(-0.832613 0.0814817 0)
(-0.863203 0.0803729 0)
(-0.893643 0.0793306 0)
(-0.923952 0.0783538 -5.54502e-20)
(-0.954149 0.0774404 -5.44506e-20)
(-0.984252 0.0765881 -2.68359e-20)
(-1.01428 0.0757935 0)
(-1.04425 0.0750532 5.19147e-20)
(-1.07417 0.0743628 0)
(-1.10407 0.073718 -5.03154e-20)
(-1.13396 0.0731138 0)
(-1.16385 0.0725453 0)
(-1.19375 0.0720072 4.8153e-20)
(-1.22366 0.0714944 0)
(-1.25361 0.0710015 1.40194e-19)
(-1.28358 0.0705233 -4.62111e-20)
(-1.31359 0.0700545 0)
(-1.34364 0.0695899 -4.50113e-20)
(-1.37372 0.0691243 -4.44349e-20)
(-1.40383 0.0686523 0)
(-1.43396 0.0681689 0)
(-1.46411 0.0676688 0)
(-1.49426 0.067147 0)
(-1.5244 0.0665984 0)
(-1.55452 0.0660182 4.12245e-20)
(-1.58459 0.0654014 8.11526e-20)
(-1.61459 0.0647435 -4.02252e-20)
(-1.6445 0.0640398 0)
(-1.6743 0.0632856 7.8223e-20)
(-1.70394 0.0624762 -3.84975e-20)
(-1.7334 0.0616069 0)
(-1.76265 0.0606731 -3.78234e-20)
(-1.79164 0.05967 0)
(-1.82032 0.0585931 0)
(-1.84867 0.0574379 -7.26033e-20)
(-1.87661 0.0562002 3.59608e-20)
(-1.90412 0.054876 -7.07672e-20)
(-1.93112 0.0534614 6.98512e-20)
(-1.95756 0.0519523 3.45744e-20)
(-1.98337 0.050345 0)
(-2.00851 0.0486359 3.3647e-20)
(-2.03288 0.0468219 0)
(-2.05643 0.0449003 0)
(-2.07908 0.0428693 0)
(-2.10075 0.0407278 3.16134e-20)
(-2.12136 0.0384752 0)
(-2.14084 0.0361118 6.14776e-20)
(-2.1591 0.0336385 -9.08267e-20)
(-2.17606 0.0310569 -2.98189e-20)
(-2.19164 0.0283698 0)
(-2.20575 0.0255812 -2.88126e-20)
(-2.21832 0.022696 0)
(-2.22926 0.0197204 -5.55602e-20)
(-2.23851 0.0166616 0)
(-2.24597 0.0135275 -5.34397e-20)
(-2.2516 0.0103255 1.04747e-19)
(-2.25532 0.00706099 5.12637e-20)
(-2.25707 0.00374064 0)
(-2.25679 0.000395819 0)
(-2.25448 -0.00294017 0)
(-2.25009 -0.00625758 -4.65868e-20)
(-2.24362 -0.00954548 0)
(-2.23507 -0.0127907 4.41198e-20)
(-2.22444 -0.0159791 0)
(-2.21174 -0.0190957 -1.25078e-19)
(-2.197 -0.0221249 -4.0281e-20)
(-2.18026 -0.0250503 -3.89681e-20)
(-2.16156 -0.0278548 0)
(-2.14098 -0.0305212 0)
(-2.11857 -0.0330326 0)
(-2.09444 -0.0353728 0)
(-2.06869 -0.0375262 0)
(-2.04143 -0.0394776 -6.22354e-20)
(-2.01279 -0.0412121 -5.94944e-20)
(-1.9829 -0.0427162 0)
(-1.95193 -0.0439777 2.67057e-20)
(-1.92004 -0.0449867 2.53312e-20)
(-1.88739 -0.0457351 0)
(-1.85417 -0.0462169 4.58047e-20)
(-1.82056 -0.0464281 0)
(-1.78676 -0.0463676 -2.05056e-20)
(-1.75296 -0.0460365 0)
(-1.71936 -0.045439 0)
(-1.68616 -0.0445817 3.25689e-20)
(-1.65354 -0.0434735 0)
(-1.62169 -0.0421254 -1.35124e-20)
(-1.59081 -0.0405508 0)
(-1.56105 -0.0387653 0)
(-1.53258 -0.0367878 -1.03711e-20)
(-1.50554 -0.0346396 -8.82313e-21)
(-1.48008 -0.0323436 0)
(-1.45631 -0.0299232 6.96874e-21)
(-1.43432 -0.027402 0)
(-1.4142 -0.0248052 -4.84658e-21)
(-1.39601 -0.0221596 -7.44584e-21)
(-1.37979 -0.0194926 0)
(-1.36556 -0.0168308 0)
(-1.35332 -0.014201 0)
(-1.34305 -0.0116298 0)
(-1.3347 -0.00914418 1.75784e-21)
(-1.3282 -0.00677039 1.01563e-20)
(-1.32346 -0.00453389 0)
(-1.32038 -0.00245842 0)
(-1.31883 -0.00056302 0)
(-1.31865 0.0011444 -9.70455e-21)
(-1.31968 0.00265452 0)
(-1.32172 0.0039439 0)
(-1.3246 0.00499166 2.86322e-20)
(-1.3281 0.00578706 1.59005e-20)
(-1.33198 0.00632307 1.73747e-20)
(-1.33601 0.00659314 0)
(-1.33993 0.00659137 0)
(-1.3435 0.00631407 2.2351e-20)
(-1.34644 0.00576072 -2.41207e-20)
(-1.34847 0.00493592 0)
(-1.34931 0.0038521 0)
(-1.3487 0.0025208 -3.01099e-20)
(-1.34642 0.000956843 9.67853e-20)
(-1.3422 -0.000825774 0)
(-1.33578 -0.00281938 0)
(-1.32689 -0.00501415 3.99454e-20)
(-1.31531 -0.00739779 0)
(-1.30079 -0.00995548 9.13123e-20)
(-1.28311 -0.0126754 -4.86111e-20)
(-1.26206 -0.0155443 0)
(-1.23741 -0.0185413 5.66316e-20)
(-1.20899 -0.0216467 1.20506e-19)
(-1.17662 -0.0248452 0)
(-1.14014 -0.0281237 0)
(-1.0994 -0.0314747 -7.47075e-20)
(-1.05424 -0.0348994 0)
(-1.00453 -0.038366 1.69957e-19)
(-0.950177 -0.0418378 0)
(-0.891074 -0.0453458 0)
(-0.82709 -0.0488874 0)
(-0.758186 -0.052392 0)
(-0.684269 -0.0559094 -1.1984e-19)
(-0.605259 -0.0594236 -1.27976e-19)
(-0.52115 -0.0628562 0)
(-0.43176 -0.0663294 0)
(-0.337354 -0.0697629 0)
(-0.237333 -0.0732489 1.65545e-19)
(-0.132861 -0.0768131 0)
(-0.0214789 -0.0801259 -3.69274e-19)
(0.093293 -0.0831385 3.75419e-19)
(0.209613 -0.0853536 3.76663e-19)
(0.329492 -0.0849695 3.73536e-19)
(0.446323 -0.0811911 3.81312e-19)
(0.567152 -0.0733159 3.80555e-19)
(0.653591 -0.0542231 0)
(-0.00941343 -0.0508217 0)
(-0.022039 -0.00850176 0)
(-0.0398747 0.0291171 -1.68217e-19)
(-0.0594348 0.0600291 -1.24166e-19)
(-0.0799274 0.0858429 1.04542e-19)
(-0.101036 0.107051 9.35753e-20)
(-0.122987 0.123884 5.21116e-23)
(-0.14605 0.136684 0)
(-0.170377 0.146036 0)
(-0.195943 0.152626 0)
(-0.222602 0.157078 0)
(-0.250157 0.159895 0)
(-0.278416 0.161458 -1.90805e-19)
(-0.307206 0.162052 0)
(-0.33638 0.161888 5.8489e-20)
(-0.36582 0.161128 5.62101e-20)
(-0.395431 0.159899 0)
(-0.425136 0.158305 0)
(-0.454875 0.156431 0)
(-0.484598 0.154352 0)
(-0.514269 0.152131 4.72594e-20)
(-0.543858 0.149822 0)
(-0.57334 0.147473 -4.45863e-20)
(-0.602695 0.145122 0)
(-0.631908 0.142798 0)
(-0.660968 0.140521 0)
(-0.689871 0.138309 -8.04915e-20)
(-0.718619 0.136174 0)
(-0.747213 0.134124 3.86147e-20)
(-0.775663 0.132166 -7.55165e-20)
(-0.803975 0.130304 0)
(-0.832162 0.128542 0)
(-0.860235 0.126878 0)
(-0.888208 0.125313 3.51926e-20)
(-0.916094 0.123844 3.46221e-20)
(-0.943908 0.122467 0)
(-0.971664 0.121178 0)
(-0.999374 0.119972 -6.599e-20)
(-1.02705 0.118843 -6.50593e-20)
(-1.05472 0.117783 6.41697e-20)
(-1.08237 0.116786 0)
(-1.11003 0.115843 0)
(-1.13769 0.114947 0)
(-1.16538 0.11409 0)
(-1.19309 0.113262 -6.03857e-20)
(-1.22083 0.112456 -5.94992e-20)
(-1.2486 0.111664 5.88049e-20)
(-1.27639 0.110876 0)
(-1.30422 0.110085 0)
(-1.33207 0.109281 0)
(-1.35993 0.108458 0)
(-1.38781 0.107606 -5.55625e-20)
(-1.41568 0.106718 0)
(-1.44354 0.105785 0)
(-1.47136 0.1048 -5.37431e-20)
(-1.49914 0.103754 -5.33107e-20)
(-1.52684 0.102642 0)
(-1.55446 0.101454 1.03955e-19)
(-1.58195 0.100183 -5.15503e-20)
(-1.6093 0.098823 5.09688e-20)
(-1.63646 0.0973651 0)
(-1.66342 0.0958024 0)
(-1.69012 0.0941275 0)
(-1.71654 0.0923333 0)
(-1.74262 0.0904129 4.8065e-20)
(-1.76832 0.0883595 9.47013e-20)
(-1.79359 0.0861666 4.68921e-20)
(-1.81838 0.0838278 -4.63005e-20)
(-1.84264 0.081337 0)
(-1.8663 0.0786883 8.999e-20)
(-1.8893 0.0758764 8.87893e-20)
(-1.91158 0.0728968 8.75768e-20)
(-1.93306 0.0697456 -8.63514e-20)
(-1.95369 0.0664204 0)
(-1.97337 0.0629194 -1.25861e-19)
(-1.99205 0.0592422 0)
(-2.00964 0.0553895 4.05905e-20)
(-2.02606 0.0513634 4.00459e-20)
(-2.04124 0.0471674 0)
(-2.0551 0.0428068 0)
(-2.06755 0.0382887 7.59551e-20)
(-2.07851 0.0336218 0)
(-2.08793 0.0288166 7.31601e-20)
(-2.09571 0.0238854 0)
(-2.10179 0.0188415 -7.02791e-20)
(-2.10611 0.0136985 -1.37557e-19)
(-2.10861 0.00846936 0)
(-2.10921 0.00317861 0)
(-2.10791 -0.00212869 0)
(-2.10466 -0.00741495 -6.25227e-20)
(-2.09946 -0.0126604 0)
(-2.09228 -0.0178451 -5.91873e-20)
(-2.08312 -0.0229472 0)
(-2.07201 -0.0279433 0)
(-2.05894 -0.0328093 1.07786e-19)
(-2.04396 -0.0375197 0)
(-2.0271 -0.0420483 5.04581e-20)
(-2.0084 -0.0463684 0)
(-1.98795 -0.0504535 4.68473e-20)
(-1.96581 -0.0542776 0)
(-1.94207 -0.0578157 0)
(-1.91684 -0.0610436 0)
(-1.89023 -0.063938 1.18262e-19)
(-1.86236 -0.0664771 3.73635e-20)
(-1.83337 -0.0686412 0)
(-1.80341 -0.0704138 0)
(-1.77264 -0.0717811 0)
(-1.74122 -0.0727329 0)
(-1.70933 -0.0732625 -2.83442e-20)
(-1.67715 -0.0733669 5.38508e-20)
(-1.64485 -0.0730472 2.48726e-20)
(-1.61262 -0.0723083 -4.69808e-20)
(-1.58064 -0.0711594 -4.36296e-20)
(-1.5491 -0.0696138 -1.98804e-20)
(-1.51818 -0.0676885 0)
(-1.48804 -0.0654041 -3.39654e-20)
(-1.45885 -0.0627847 0)
(-1.43076 -0.0598582 2.78837e-20)
(-1.40392 -0.0566564 1.227e-20)
(-1.37846 -0.0532138 0)
(-1.35449 -0.049567 -1.93533e-20)
(-1.33211 -0.0457533 -8.18238e-21)
(-1.31139 -0.0418112 0)
(-1.29241 -0.0377812 -5.89512e-21)
(-1.2752 -0.0337045 1.35773e-20)
(-1.2598 -0.0296227 0)
(-1.2462 -0.025577 0)
(-1.23438 -0.0216082 0)
(-1.22432 -0.0177563 0)
(-1.21595 -0.0140603 -1.97409e-21)
(-1.2092 -0.0105572 -4.03628e-21)
(-1.20397 -0.0072831 0)
(-1.20016 -0.00427144 0)
(-1.19762 -0.00155123 0)
(-1.19622 0.00085753 0)
(-1.1958 0.0029414 0)
(-1.19615 0.00467795 0)
(-1.19708 0.00604044 -1.72513e-20)
(-1.19841 0.00701093 -6.61501e-24)
(-1.19992 0.00757689 0)
(-1.20137 0.00772783 0)
(-1.20253 0.00745576 -2.49837e-20)
(-1.20317 0.00675857 0)
(-1.20302 0.00564148 2.93606e-20)
(-1.20183 0.00411797 3.15255e-20)
(-1.19936 0.00220615 0)
(-1.19541 -7.76408e-05 0)
(-1.18969 -0.00271963 -3.94164e-20)
(-1.18196 -0.00570471 -8.40629e-20)
(-1.17198 -0.00901472 0)
(-1.15952 -0.0126301 0)
(-1.14435 -0.0165304 0)
(-1.12625 -0.0206931 -5.61078e-20)
(-1.10501 -0.0250983 6.01643e-20)
(-1.08043 -0.0297275 0)
(-1.0523 -0.0345493 1.36966e-19)
(-1.02045 -0.0395296 7.26687e-20)
(-0.98471 -0.0446435 -1.57131e-19)
(-0.944929 -0.0498687 0)
(-0.900968 -0.0551923 0)
(-0.852666 -0.060613 -1.92441e-19)
(-0.799884 -0.0660852 -1.03803e-19)
(-0.742539 -0.0715537 0)
(-0.680526 -0.0770507 0)
(-0.613701 -0.0825771 0)
(-0.542031 -0.0880318 0)
(-0.465389 -0.0934667 -2.83189e-19)
(-0.383703 -0.0988862 0)
(-0.296994 -0.10418 0)
(-0.204861 -0.109493 0)
(-0.10795 -0.114755 0)
(-0.00486694 -0.119861 0)
(0.102075 -0.124738 0)
(0.213582 -0.12891 -3.9527e-19)
(0.328467 -0.132205 0)
(0.445549 -0.13429 0)
(0.565292 -0.13386 -8.38494e-19)
(0.68406 -0.129715 4.24994e-19)
(0.807499 -0.120557 -4.36102e-19)
(0.911047 -0.100983 4.40624e-19)
(-0.0180145 -0.0119512 0)
(-0.0366382 0.0378276 4.63085e-19)
(-0.0578469 0.074908 0)
(-0.0803757 0.105169 9.40992e-20)
(-0.102802 0.130709 0)
(-0.124888 0.152138 0)
(-0.14695 0.16971 -6.3234e-20)
(-0.169311 0.183676 0)
(-0.192193 0.194403 0)
(-0.215704 0.202343 0)
(-0.239858 0.20796 0)
(-0.264609 0.211683 0)
(-0.289877 0.21388 1.85819e-19)
(-0.315571 0.214856 8.92369e-20)
(-0.341601 0.214856 -8.58524e-20)
(-0.367889 0.21408 0)
(-0.394363 0.212688 0)
(-0.420966 0.210815 0)
(-0.447646 0.20857 0)
(-0.474363 0.206047 0)
(-0.501083 0.203326 7.0293e-20)
(-0.527778 0.200473 6.83344e-20)
(-0.554424 0.197545 -6.65183e-20)
(-0.581003 0.194589 6.48323e-20)
(-0.607499 0.191643 0)
(-0.633901 0.188737 0)
(-0.660205 0.185896 6.05093e-20)
(-0.686406 0.183139 0)
(-0.712504 0.180479 0)
(-0.738504 0.177928 5.69476e-20)
(-0.764408 0.175492 5.58343e-20)
(-0.790225 0.173177 5.4854e-20)
(-0.815962 0.170985 0)
(-0.841629 0.168916 0)
(-0.867234 0.166967 -5.22375e-20)
(-0.89279 0.165135 0)
(-0.918306 0.163415 0)
(-0.943794 0.1618 5.00964e-20)
(-0.969263 0.160283 -4.9263e-20)
(-0.994723 0.158856 4.86217e-20)
(-1.02018 0.157508 0)
(-1.04565 0.156231 0)
(-1.07114 0.155013 9.38693e-20)
(-1.09664 0.153845 0)
(-1.12217 0.152715 9.1717e-20)
(-1.14773 0.151612 1.3612e-19)
(-1.17331 0.150526 -1.34623e-19)
(-1.19892 0.149444 8.87204e-20)
(-1.22456 0.148356 0)
(-1.25022 0.14725 0)
(-1.27589 0.146116 8.59263e-20)
(-1.30157 0.144942 4.25945e-20)
(-1.32725 0.143718 0)
(-1.35291 0.142433 0)
(-1.37853 0.141076 4.12774e-20)
(-1.40411 0.139637 8.15403e-20)
(-1.42962 0.138106 0)
(-1.45504 0.136472 -7.9983e-20)
(-1.48035 0.134725 7.89897e-20)
(-1.50551 0.132856 -7.81442e-20)
(-1.53051 0.130854 0)
(-1.5553 0.128709 0)
(-1.57986 0.126412 0)
(-1.60414 0.123953 0)
(-1.62811 0.121321 0)
(-1.65172 0.118508 -7.31455e-20)