/*--------------------------------*- C++ -*----------------------------------*\
| =========                 |                                                 |
| \\      /  F ield         | OpenFOAM: The Open Source CFD Toolbox           |
|  \\    /   O peration     | Version:  2.2.x                                 |
|   \\  /    A nd           | Web:      www.OpenFOAM.org                      |
|    \\/     M anipulation  |                                                 |
\*---------------------------------------------------------------------------*/
FoamFile
{
    version     2.0;
    format      ascii;
    class       volScalarField;
    location    "200";
    object      epsilon;
}
// * * * * * * * * * * * * * * * * * * * * * * * * * * * * * * * * * * * * * //

dimensions      [0 2 -3 0 0 0 0];

internalField   nonuniform List<scalar> 
12225
(
1739.1
3020.43
4029.75
4713.71
5130.33
5355.02
5451.41
5466.12
5430.97
5366.71
5286.56
5198.76
5108.34
5018.28
4930.21
4844.85
4761.14
4684.86
187.46
345.425
471.942
572.707
645.468
693.754
723.765
741.254
750.65
755.103
756.748
756.987
756.724
756.547
756.901
758.451
763.755
774.931
41.8489
72.5322
98.6552
120.822
138.902
152.99
163.586
171.326
176.839
180.682
183.32
185.128
186.4
187.373
188.245
189.235
190.651
192.593
20.3611
27.9907
35.4929
42.3696
48.4408
53.6421
58.0024
61.5994
64.5295
66.8933
68.7878
70.3022
71.5165
72.5024
73.326
74.0528
74.7486
75.436
16.0567
18.2165
20.6832
23.1671
25.527
27.6902
29.6284
31.3388
32.8322
34.1261
35.2415
36.2004
37.0248
37.7363
38.3556
38.9034
39.3987
39.8465
15.0133
15.5466
16.3159
17.2027
18.1272
19.0382
19.9054
20.7132
21.4545
22.1281
22.7358
23.2819
23.7716
24.211
24.6065
24.9649
25.2924
25.5889
14.7584
14.7817
14.9222
15.1518
15.4407
15.763
16.0993
16.4357
16.7632
17.0762
17.3716
17.6477
17.9046
18.1428
18.3637
18.5688
18.76
18.9356
14.7064
14.6
14.55
14.5531
14.6008
14.6825
14.7879
14.9085
15.0375
15.17
15.3023
15.432
15.5574
15.6778
15.7928
15.9024
16.0068
16.104
14.6924
14.5449
14.4248
14.334
14.2716
14.2345
14.2187
14.2199
14.2342
14.2584
14.2895
14.3255
14.3645
14.4054
14.4473
14.4895
14.5317
14.5724
14.6884
14.5275
14.3815
14.2515
14.1381
14.0408
13.9587
13.8902
13.8339
13.788
13.7509
13.7212
13.6979
13.6797
13.6658
13.6557
13.6487
13.6438
14.6873
14.5228
14.369
14.2259
14.0934
13.9716
13.8601
13.7584
13.666
13.5822
13.5063
13.4376
13.3755
13.3193
13.2684
13.2224
13.1808
13.1432
14.6869
14.5216
14.3659
14.2192
14.0812
13.9515
13.8298
13.7157
13.6089
13.5091
13.4157
13.3285
13.2471
13.1711
13.1002
13.034
12.9723
12.9153
14.6867
14.5212
14.365
14.2175
14.0782
13.9466
13.8222
13.7046
13.5935
13.4884
13.3891
13.2952
13.2066
13.1227
13.0436
12.9688
12.8982
12.8322
14.6866
14.521
14.3646
14.217
14.0774
13.9453
13.8203
13.702
13.5899
13.4836
13.3828
13.2872
13.1966
13.1105
13.0289
12.9514
12.8779
12.809
14.6865
14.5208
14.3644
14.2166
14.0769
13.9448
13.8197
13.7012
13.589
13.4825
13.3815
13.2856
13.1946
13.1081
13.026
12.948
12.8739
12.8042
14.6864
14.5207
14.3642
14.2164
14.0767
13.9445
13.8194
13.7009
13.5886
13.4821
13.3811
13.2853
13.1942
13.1078
13.0257
12.9476
12.8735
12.8038
14.6863
14.5206
14.3641
14.2162
14.0765
13.9443
13.8192
13.7007
13.5885
13.482
13.3811
13.2853
13.1943
13.108
13.0259
12.948
12.8739
12.8043
14.6863
14.5205
14.364
14.2162
14.0764
13.9443
13.8192
13.7008
13.5885
13.4822
13.3813
13.2856
13.1947
13.1084
13.0264
12.9486
12.8746
12.805
14.6863
14.5205
14.364
14.2162
14.0765
13.9444
13.8193
13.701
13.5888
13.4825
13.3817
13.2861
13.1953
13.1091
13.0272
12.9494
12.8755
12.806
14.6863
14.5205
14.3641
14.2163
14.0767
13.9446
13.8197
13.7014
13.5894
13.4832
13.3826
13.2871
13.1965
13.1105
13.0289
12.9513
12.8777
12.8084
14.6863
14.5206
14.3642
14.2166
14.0771
13.9453
13.8207
13.7028
13.5913
13.4858
13.3859
13.2913
13.2017
13.1168
13.0363
12.9601
12.8878
12.82
14.6864
14.5209
14.3648
14.2178
14.0794
13.9491
13.8265
13.7113
13.603
13.5013
13.4058
13.316
13.2317
13.1525
13.078
13.008
12.9421
12.8808
14.6868
14.5224
14.369
14.2267
14.0952
13.9745
13.864
13.7632
13.6714
13.5879
13.512
13.4429
13.3799
13.3224
13.2698
13.2216
13.1773
13.1371
14.6895
14.5345
14.3996
14.2859
14.193
14.1194
14.0629
14.021
13.9913
13.9716
13.9598
13.9542
13.9534
13.9561
13.9613
13.9683
13.9765
13.9855
14.712
14.6196
14.5878
14.6103
14.6767
14.7758
14.8974
15.0333
15.1769
15.3232
15.4686
15.6104
15.7469
15.8767
15.9993
16.1141
16.2211
16.3204
14.8712
15.1214
15.5419
16.0656
16.643
17.2388
17.8299
18.4017
18.9455
19.4563
19.9315
20.3706
20.7737
21.1421
21.4774
21.7813
22.0559
22.3032
15.8756
17.704
19.7829
21.8871
23.9244
25.8477
27.6343
29.2756
30.7704
32.1217
33.3355
34.4195
35.3827
36.2345
36.9844
37.6417
38.2149
38.7125
22.1654
31.0955
39.3004
46.8608
53.8337
60.19
65.9181
71.0252
75.5305
79.4645
82.8669
85.784
88.2647
90.3582
92.111
93.5649
94.7539
95.698
68.0129
114.864
154.7
191.643
225.814
256.553
283.557
306.803
326.456
342.806
356.22
367.089
375.797
382.696
388.098
392.26
395.368
397.425
723.14
1065.45
1375.79
1655.35
1913.36
2142.92
2340.75
2506.49
2641.84
2749.63
2833.26
2896.21
2941.83
2973.13
2992.79
3003.09
3005.99
3002.96
5.57116
4.40191
6.87845
11.6404
18.0023
25.5377
34.188
43.9104
54.5854
66.1227
78.4686
91.5796
105.418
119.949
135.142
150.967
167.397
184.407
201.974
220.074
238.686
257.791
277.371
297.406
317.882
338.782
360.093
381.801
403.893
426.359
449.188
472.372
495.901
519.771
543.974
568.506
593.365
618.548
644.055
669.884
696.038
722.519
749.331
776.476
803.962
831.792
859.973
888.512
917.414
946.686
976.332
1006.36
1036.77
1067.56
1098.74
1130.3
1162.24
1194.56
1227.23
1260.25
1293.6
1327.26
1361.23
1395.48
1430.01
1464.83
1499.98
1535.52
1571.58
1608
1643.56
1678
1710.97
1742.11
1771.02
1797.24
1820.29
1839.66
1854.82
1865.25
1870.42
1869.88
1863.23
1850.18
1830.53
1804.26
1771.49
1732.53
1687.82
1637.95
1583.65
1525.7
1464.95
1402.24
1338.41
1274.23
1210.37
1147.46
1086
1026.39
968.951
913.904
861.395
811.509
764.274
719.67
677.669
638.159
601.13
566.328
534.076
504.795
478.463
457.119
438.124
420.541
404.136
388.788
374.404
360.904
348.214
336.269
325.015
314.401
304.381
294.912
285.953
277.467
269.422
261.785
254.531
247.635
241.072
234.822
228.865
223.182
217.757
212.575
207.62
202.879
198.34
193.992
189.824
185.826
181.989
178.305
174.766
171.364
168.092
164.945
161.915
158.999
156.189
153.482
150.873
148.358
145.933
143.593
141.338
139.162
137.062
135.035
133.08
131.191
129.367
127.605
125.9
124.251
122.652
121.098
119.581
118.092
116.62
115.144
113.638
112.057
110.374
108.611
106.603
103.557
20.2556
13.9286
15.9599
20.3043
26.285
33.3395
41.0529
49.1818
57.5859
66.1837
74.9256
83.7787
92.7208
101.737
110.819
119.962
129.164
138.424
147.744
157.126
166.572
176.084
185.664
195.315
205.037
214.833
224.702
234.645
244.662
254.752
264.914
275.149
285.455
295.83
306.274
316.785
327.363
338.005
348.712
359.482
370.314
381.207
392.162
403.178
414.254
425.391
436.587
447.843
459.159
470.533
481.965
493.454
504.998
516.596
528.245
539.941
551.681
563.46
575.273
587.114
598.978
610.857
622.746
634.641
646.537
658.435
670.339
682.258
694.208
706.392
718.239
729.6
740.367
750.427
759.657
767.923
775.078
780.97
785.436
788.315
789.442
788.664
785.841
780.856
773.626
764.11
752.311
738.292
722.164
704.097
684.302
663.03
640.558
617.176
593.172
568.827
544.398
520.118
496.187
472.774
450.013
428.007
406.827
386.52
367.115
348.612
331.008
314.261
298.374
283.207
268.855
255.766
243.748
233.019
223.185
214.032
205.464
197.421
189.861
182.745
176.039
169.714
163.741
158.097
152.757
147.702
142.91
138.365
134.05
129.949
126.05
122.338
118.802
115.431
112.215
109.145
106.212
103.407
100.724
98.1547
95.6934
93.3338
91.0703
88.8978
86.8116
84.8069
82.8794
81.0252
79.2405
77.5221
75.8667
74.2712
72.7327
71.2484
69.816
68.4332
67.0979
65.8079
64.5613
63.3563
62.1913
61.0645
59.9745
58.9199
57.8993
56.9113
55.9547
55.0283
54.1308
53.2611
52.4181
51.6005
50.8073
50.0378
49.2924
48.5738
47.9199
47.4375
47.3529
48.6176
44.1956
24.4527
25.1943
29.447
35.3752
42.3212
49.8429
57.6585
65.6085
73.6077
81.6111
89.5965
97.555
105.486
113.395
121.289
129.179
137.074
144.983
152.916
160.88
168.881
176.924
185.013
193.151
201.337
209.573
217.857
226.187
234.561
242.976
251.428
259.914
268.429
276.969
285.53
294.107
302.695
311.291
319.89
328.488
337.081
345.667
354.242
362.803
371.349
379.877
388.385
396.874
405.342
413.79
422.217
430.626
439.017
447.392
455.754
464.106
472.451
480.792
489.134
497.48
505.835
514.204
522.591
531.001
539.439
547.908
556.411
564.951
573.468
581.832
589.978
597.85
605.386
612.512
619.144
625.184
630.522
635.032
638.577
641.01
642.175
641.919
640.096
636.575
631.256
624.073
615.007
604.091
591.41
577.099
561.337
544.339
526.34
507.587
488.323
468.783
449.179
429.701
410.509
391.735
373.483
355.829
338.819
322.493
306.844
291.895
277.562
263.925
251.101
239.042
227.826
217.413
207.799
198.859
190.498
182.653
175.279
168.339
161.802
155.638
149.82
144.325
139.13
134.214
129.557
125.143
120.954
116.977
113.196
109.6
106.177
102.915
99.8049
96.8372
94.0032
91.2949
88.7048
86.2262
83.8526
81.5779
79.3967
77.3038
75.2944
73.364
71.5085
69.7237
68.0062
66.3524
64.7592
63.2236
61.7428
60.314
58.9349
57.603
56.3163
55.0726
53.8702
52.7072
51.5819
50.4927
49.4382
48.4169
47.4276
46.469
45.5399
44.6394
43.7664
42.9201
42.0997
41.3048
40.535
39.7905
39.0726
38.3844
37.7332
37.1452
36.6986
36.5452
37.1205
69.2539
34.3951
33.2978
37.1076
42.7497
49.388
56.5791
64.047
71.6318
79.2486
86.8556
94.4362
101.988
109.516
117.031
124.545
132.071
139.621
147.206
154.836
162.518
170.258
178.059
185.923
193.85
201.838
209.885
217.988
226.14
234.336
242.57
250.835
259.123
267.426
275.736
284.046
292.347
300.631
308.891
317.119
325.307
333.449
341.538
349.57
357.538
365.439
373.268
381.024
388.704
396.307
403.835
411.289
418.671
425.986
433.239
440.436
447.586
454.698
461.783
468.853
475.919
482.996
490.098
497.239
504.433
511.694
519.036
526.467
533.993
541.56
549.136
556.694
564.203
571.625
578.908
585.985
592.774
599.169
605.046
610.257
614.635
617.995
620.141
620.874
620.005
617.367
612.829
606.31
597.786
587.299
574.953
560.909
545.375
528.593
510.823
492.328
473.367
454.177
434.97
415.934
397.219
378.943
361.209
344.047
327.551
311.654
296.48
282.115
268.523
255.714
243.668
232.385
221.836
211.982
202.754
194.094
185.954
178.294
171.081
164.282
157.869
151.815
146.097
140.689
135.572
130.725
126.131
121.772
117.632
113.697
109.955
106.393
102.998
99.7623
96.6743
93.7255
90.9076
88.2128
85.634
83.1644
80.7979
78.5285
76.351
74.2604
72.2519
70.3212
68.464
66.6768
64.9557
63.2976
61.6993
60.1578
58.6703
57.2344
55.8475
54.5074
53.2119
51.9591
50.7471
49.5741
48.4385
47.3388
46.2734
45.2411
44.2405
43.2705
42.3301
41.4183
40.5343
39.6775
38.8474
38.044
37.2678
36.5206
35.8062
35.1327
34.5201
34.0228
33.736
33.8569
93.4355
42.8993
39.6119
42.7693
48.0149
54.2776
61.089
68.1837
75.4105
82.6897
89.9842
97.2813
104.582
111.895
119.233
126.61
134.039
141.532
149.101
156.753
164.496
172.332
180.263
188.29
196.409
204.616
212.907
221.273
229.707
238.199
246.74
255.319
263.924
272.545
281.168
289.783
298.377
306.939
315.456
323.917
332.312
340.629
348.859
356.993
365.023
372.94
380.739
388.415
395.965
403.385
410.675
417.836
424.872
431.788
438.59
445.288
451.894
458.421
464.887
471.309
477.708
484.106
490.529
497
503.547
510.196
516.974
523.906
531.001
538.252
545.661
553.226
560.94
568.785
576.728
584.715
592.674
600.503
608.072
615.22
621.753
627.449
632.06
635.327
636.991
636.811
634.582
630.154
623.449
614.466
603.285
590.059
575.007
558.391
540.502
521.64
502.106
482.173
462.086
442.075
422.316
402.932
384.103
365.758
348.183
331.413
315.453
300.324
286.016
272.517
259.804
247.855
236.638
226.108
216.213
206.905
198.144
189.89
182.11
174.774
167.85
161.312
155.133
149.289
143.758
138.518
133.55
128.836
124.359
120.104
116.057
112.204
108.533
105.033
101.693
98.5039
95.4561
92.5416
89.7524
87.0815
84.5221
82.0679
79.713
77.4522
75.2802
73.1924
71.1843
69.2517
67.3908
65.5981
63.8699
62.2033
60.5952
59.0428
57.5435
56.0948
54.6944
53.3402
52.0301
50.7622
49.5346
48.3459
47.1944
46.0786
44.9972
43.9489
42.9327
41.9476
40.9927
40.0674
39.1714
38.3047
37.4681
36.6637
35.8953
35.1712
34.5079
33.9424
33.5361
33.3827
114.68
49.6682
44.0752
46.4354
51.202
57.0526
63.4697
70.1879
77.0634
84.0225
91.0324
98.084
105.181
112.335
119.559
126.868
134.276
141.795
149.435
157.205
165.109
173.151
181.329
189.643
198.087
206.655
215.34
224.132
233.019
241.99
251.031
260.128
269.266
278.431
287.605
296.774
305.921
315.031
324.086
333.072
341.974
350.775
359.463
368.023
376.444
384.713
392.82
400.758
408.517
416.094
423.484
430.686
437.702
444.536
451.193
457.686
464.025
470.229
476.317
482.313
488.245
494.143
500.04
505.975
511.987
518.117
524.406
530.899
537.626
544.614
551.895
559.493
567.427
575.704
584.311
593.216
602.361
611.653
620.96
630.112
638.889
647.028
654.23
660.165
664.495
666.892
667.065
664.782
659.899
652.367
642.239
629.662
614.867
598.148
579.834
560.265
539.796
518.753
497.395
476.033
454.869
433.952
413.74
394.208
375.47
357.573
340.54
324.377
309.079
294.626
280.994
268.153
256.067
244.692
233.981
223.891
214.379
205.41
196.949
188.963
181.421
174.295
167.557
161.181
155.144
149.422
143.996
138.846
133.954
129.303
124.878
120.665
116.65
112.821
109.168
105.678
102.344
99.1542
96.1019
93.1787
90.3775
87.6913
85.1139
82.6392
80.2618
77.9765
75.7785
73.6632
71.6264
69.6642
67.7728
65.9488
64.1889
62.49
60.8494
59.2642
57.732
56.2505
54.8172
53.4303
52.0877
50.7876
49.5284
48.3084
47.1261
45.9803
44.8698
43.7935
42.7506
41.7404
40.7627
39.8176
38.906
38.0301
37.194
36.4054
35.6782
35.0378
34.5233
34.1809
131.809
54.6728
46.869
48.3548
52.5754
57.979
63.9881
70.3266
76.8523
83.4948
90.2243
97.0341
103.93
110.925
118.034
125.272
132.655
140.194
147.901
155.783
163.844
172.088
180.514
189.118
197.896
206.839
215.938
225.182
234.556
244.047
253.639
263.314
273.054
282.841
292.656
302.479
312.289
322.067
331.791
341.443
351.001
360.447
369.76
378.923
387.919
396.73
405.341
413.738
421.909
429.844
437.535
444.975
452.163
459.098
465.785
472.231
478.449
484.455
490.271
495.924
501.444
506.869
512.243
517.612
523.028
528.549
534.233
540.142
546.337
552.877
559.824
567.235
575.16
583.634
592.679
602.291
612.435
623.037
633.974
645.071
656.089
666.73
676.634
685.398
692.595
697.797
700.608
700.699
697.845
691.942
683.009
671.182
656.707
639.913
621.179
600.88
579.434
557.253
534.53
511.766
489.275
467.183
445.717
424.976
405.053
385.999
367.844
350.595
334.247
318.781
304.172
290.386
277.387
265.13
253.572
242.669
232.381
222.669
213.499
204.835
196.647
188.904
181.577
174.639
168.066
161.833
155.918
150.302
144.964
139.888
135.057
130.455
126.068
121.884
117.89
114.074
110.427
106.938
103.599
100.4
97.3341
94.3939
91.5723
88.863
86.26
83.7577
81.3508
79.0344
76.8039
74.655
72.5836
70.5861
68.6587
66.7983
65.0017
63.2659
61.5882
59.966
58.3968
56.8785
55.4088
53.9858
52.6076
51.2725
49.979
48.7256
47.511
46.3342
45.1943
44.0905
43.0228
41.9913
40.997
40.0422
39.131
38.2706
37.4723
36.7539
36.1384
35.6496
144.35
58.0176
48.2551
48.8556
52.485
57.4068
62.9867
68.9322
75.0973
81.4115
87.846
94.3949
101.065
107.871
114.828
121.954
129.263
136.769
144.485
152.417
160.572
168.952
177.557
186.385
195.429
204.681
214.131
223.767
233.573
243.535
253.633
263.849
274.162
284.551
294.993
305.465
315.944
326.406
336.826
347.179
357.442
367.588
377.596
387.44
397.097
406.546
415.765
424.734
433.434
441.85
449.967
457.772
465.258
472.418
479.251
485.761
491.954
497.845
503.454
508.805
513.932
518.875
523.684
528.412
533.124
537.89
542.787
547.895
553.305
559.114
565.414
572.3
579.859
588.168
597.289
607.26
618.082
629.712
642.052
654.93
668.1
681.226
693.893
705.618
715.872
724.114
729.825
732.562
732.004
727.981
720.469
709.6
695.623
678.908
659.916
639.008
616.689
593.569
569.95
546.216
522.671
499.533
476.991
455.177
434.187
414.082
394.897
376.643
359.317
342.903
327.374
312.698
298.838
285.75
273.391
261.72
250.694
240.275
230.426
221.112
212.301
203.961
196.062
188.577
181.479
174.743
168.347
162.27
156.491
150.991
145.754
140.763
136.004
131.462
127.124
122.98
119.016
115.224
111.592
108.113
104.778
101.579
98.5078
95.5586
92.7247
90
87.3789
84.856
82.4265
80.0857
77.8293
75.6531
73.5534
71.5265
69.569
67.6778
65.8499
64.0825
62.373
60.7188
59.1178
57.5677
56.0666
54.6126
53.204
51.8393
50.5171
49.2363
47.996
46.7955
45.6346
44.5136
43.4337
42.397
41.4076
40.4718
39.5991
38.8027
38.0915
37.4805
152.271
59.882
48.5164
48.2761
51.2946
55.7057
60.8307
66.3607
72.1433
78.105
84.2156
90.4689
96.8721
103.439
110.187
117.134
124.296
131.689
139.324
147.211
155.358
163.768
172.441
181.377
190.569
200.011
209.692
219.6
229.719
240.033
250.523
261.169
271.949
282.839
293.815
304.852
315.922
326.999
338.054
349.06
359.988
370.809
381.494
392.014
402.341
412.447
422.305
431.887
441.17
450.13
458.744
466.994
474.862
482.337
489.408
496.071
502.327
508.182
513.651
518.756
523.525
527.999
532.226
536.267
540.192
544.083
548.028
552.13
556.508
561.292
566.611
572.599
579.388
587.105
595.865
605.759
616.842
629.121
642.533
656.933
672.072
687.588
703.006
717.756
731.201
742.67
751.503
757.12
759.099
757.188
751.318
741.631
728.355
711.901
692.907
671.844
649.24
625.625
601.42
577.011
552.715
528.783
505.414
482.756
460.913
439.956
419.925
400.837
382.693
365.478
349.167
333.728
319.126
305.318
292.262
279.917
268.242
257.196
246.743
236.848
227.476
218.595
210.176
202.19
194.609
187.41
180.568
174.061
167.868
161.971
156.352
150.993
145.88
140.998
136.333
131.874
127.607
123.523
119.611
115.861
112.266
108.815
105.503
102.321
99.2623
96.3211
93.4912
90.767
88.1431
85.6148
83.1772
80.8261
78.5574
76.3672
74.2519
72.2081
70.2326
68.3224
66.4747
64.6869
62.9565
61.2813
59.6589
58.0876
56.5655
55.0909
53.6625
52.279
50.9395
49.6434
48.3905
47.181
46.0162
44.8982
43.8308
42.8195
41.8721
40.9982
40.1978
39.4813
155.796
60.4788
47.9252
46.931
49.3446
53.2273
57.8736
62.9624
68.3346
73.9123
79.6624
85.577
91.6621
97.9317
104.403
111.094
118.023
125.205
132.655
140.384
148.4
156.709
165.314
174.213
183.403
192.879
202.631
212.647
222.914
233.414
244.129
255.039
266.122
277.352
288.704
300.152
311.668
323.221
334.781
346.318
357.8
369.194
380.468
391.588
402.521
413.235
423.696
433.872
443.731
453.243
462.378
471.109
479.412
487.263
494.645
501.543
507.95
513.862
519.284
524.23
528.721
532.792
536.488
539.866
542.999
545.973
548.888
551.858
555.029
558.56
562.614
567.367
572.999
579.694
587.63
596.966
607.83
620.296
634.363
649.929
666.765
684.484
702.549
720.299
736.977
751.773
763.858
772.494
777.159
777.509
773.435
765.126
752.901
737.233
718.706
697.889
675.349
651.622
627.182
602.434
577.718
553.308
529.416
506.204
483.785
462.238
441.609
421.92
403.175
385.362
368.459
352.436
337.258
322.885
309.277
296.392
284.191
272.633
261.682
251.303
241.46
232.123
223.261
214.845
206.849
199.246
192.013
185.129
178.571
172.321
166.36
160.672
155.241
150.051
145.089
140.343
135.8
131.449
127.279
123.281
119.445
115.763
112.227
108.829
105.562
102.419
99.3947
96.4826
93.6772
90.9733
88.3662
85.8512
83.4239
81.0804
78.8167
76.6294
74.515
72.4703
70.4925
68.5787
66.7262
64.9327
63.1958
61.5136
59.884
58.3055
56.7765
55.2957
53.8622
52.4754
51.135
49.8414
48.5958
47.4001
46.2578
45.1737
44.154
43.2052
42.3233
41.5146
155.291
60.0234
46.7261
45.0963
46.935
50.2866
54.438
59.0631
63.9977
69.1597
74.512
80.0438
85.7595
91.6715
97.7967
104.153
110.76
117.634
124.79
132.24
139.997
148.066
156.452
165.157
174.179
183.514
193.155
203.092
213.312
223.801
234.54
245.51
256.69
268.055
279.58
291.238
303
314.836
326.715
338.603
350.467
362.273
373.985
385.566
396.981
408.192
419.161
429.851
440.226
450.246
459.878
469.085
477.835
486.097
493.842
501.046
507.69
513.761
519.25
524.162
528.505
532.305
535.595
538.427
540.867
543
544.928
546.772
548.691
550.867
553.492
556.778
560.951
566.254
572.934
581.233
591.366
603.501
617.725
634.009
652.174
671.811
692.315
712.927
732.755
750.847
766.197
777.852
785.227
787.948
785.921
779.308
768.463
753.888
736.178
715.952
693.815
670.334
646.012
621.28
596.499
571.957
547.882
524.443
501.764
479.928
458.987
438.968
419.877
401.707
384.437
368.041
352.484
337.73
323.741
310.476
297.896
285.964
274.644
263.899
253.698
244.007
234.798
226.041
217.711
209.782
202.231
195.036
188.175
181.63
175.383
169.416
163.714
158.261
153.045
148.051
143.268
138.685
134.29
130.075
126.028
122.142
118.409
114.819
111.368
108.046
104.849
101.769
98.8016
95.941
93.182
90.5201
87.9505
85.4693
83.0723
80.7557
78.5162
76.3504
74.255
72.2274
70.2645
68.3641
66.5235
64.7408
63.0139
61.341
59.7206
58.1514
56.6324
55.1629
53.7429
52.3724
51.0528
49.7858
48.5744
47.4227
46.3355
45.3171
44.3622
43.4728
151.204
58.7359
45.1441
43.0145
44.3268
47.16
50.8121
54.9594
59.4362
64.1567
69.08
74.1917
79.4933
84.9952
90.7132
96.6651
102.869
109.343
116.103
123.163
130.535
138.228
146.25
154.603
163.289
172.306
181.648
191.31
201.279
211.544
222.089
232.897
243.947
255.216
266.682
278.317
290.094
301.983
313.953
325.971
338.002
350.012
361.963
373.818
385.538
397.084
408.415
419.489
430.265
440.702
450.758
460.392
469.562
478.231
486.362
493.919
500.874
507.202
512.882
517.904
522.266
525.977
529.059
531.55
533.504
534.995
536.121
536.998
537.79
538.685
539.894
541.652
544.222
547.897
552.995
559.841
568.756
580.02
593.837
610.289
629.306
650.476
673.096
696.306
719.052
740.18
758.549
773.16
783.282
788.481
788.628
783.874
774.596
761.324
744.684
725.332
703.906
681.001
657.144
632.785
608.298
583.985
560.08
536.761
514.155
492.351
471.405
451.346
432.185
413.916
396.524
379.982
364.262
349.328
335.144
321.674
308.88
296.727
285.178
274.201
263.764
253.835
244.386
235.39
226.821
218.654
210.867
203.439
196.348
189.576
183.106
176.92
171.003
165.341
159.92
154.727
149.749
144.976
140.397
136.002
131.781
127.725
123.827
120.078
116.471
112.999
109.656
106.434
103.33
100.336
97.4479
94.6608
91.97
89.3712
86.8601
84.4331
82.0863
79.8164
77.6202
75.4947
73.4369
71.4443
69.5144
67.645
65.8339
64.0795
62.38
60.7341
59.141
57.5997
56.1102
54.6728
53.2883
51.9585
50.686
49.4742
48.3265
47.246
46.2272
45.268
145.014
57.3772
43.5754
40.9804
41.7909
44.1185
47.2743
50.9396
54.9488
59.2132
63.688
68.3548
73.2113
78.2654
83.5303
89.0225
94.7595
100.759
107.037
113.61
120.489
127.687
135.212
143.069
151.263
159.794
168.659
177.855
187.374
197.207
207.34
217.759
228.446
239.383
250.546
261.913
273.457
285.15
296.963
308.865
320.821
332.797
344.757
356.663
368.476
380.155
391.659
402.944
413.967
424.683
435.046
445.011
454.531
463.564
472.063
479.987
487.297
493.957
499.937
505.213
509.769
513.599
516.711
519.126
520.881
522.037
522.675
522.901
522.867
522.756
522.775
523.167
524.214
526.242
529.621
534.758
542.074
551.978
564.816
580.802
599.935
621.901
646.037
671.367
696.669
720.596
741.832
759.24
771.981
779.558
781.821
778.924
771.264
759.407
744.007
725.75
705.301
683.273
660.208
636.565
612.728
588.999
565.619
542.765
520.569
499.121
478.479
458.675
439.724
421.621
404.355
387.903
372.239
357.332
343.148
329.654
316.815
304.598
292.97
281.899
271.356
261.311
251.737
242.609
233.901
225.591
217.657
210.078
202.836
195.911
189.288
182.95
176.882
171.069
165.499
160.159
155.037
150.122
145.403
140.871
136.517
132.331
128.305
124.432
120.704
117.115
113.657
110.324
107.111
104.011
101.021
98.1342
95.3466
92.6538
90.0514
87.5357
85.1028
82.7493
80.4718
78.2673
76.1329
74.0658
72.0635
70.1237
68.2444
66.4236
64.6597
62.9514
61.2976
59.6976
58.1511
56.6584
55.2203
53.8383
52.5145
51.2517
50.0524
48.9185
47.8438
46.8278
136.551
55.7251
42.0862
39.1328
39.4915
41.3411
44.0149
47.2037
50.7446
54.5474
58.5637
62.771
67.1628
71.7431
76.5222
81.5144
86.7356
92.2025
97.9314
103.938
110.236
116.837
123.753
130.991
138.557
146.455
154.685
163.247
172.136
181.346
190.868
200.69
210.799
221.179
231.811
242.674
253.747
265.003
276.415
287.956
299.594
311.296
323.028
334.753
346.434
358.03
369.501
380.803
391.891
402.721
413.244
423.414
433.18
442.496
451.311
459.579
467.252
474.288
480.647
486.295
491.203
495.354
498.738
501.363
503.247
504.434
504.986
504.991
504.58
503.912
503.175
502.591
502.435
503.034
504.781
508.125
513.57
521.643
532.85
547.591
566.05
588.065
613.035
639.916
667.306
693.633
717.371
737.225
752.257
761.927
766.078
764.887
758.78
748.353
734.288
717.291
698.04
677.156
655.182
632.578
609.723
586.919
564.401
542.346
520.883
500.104
480.066
460.804
442.333
424.654
407.757
391.624
376.232
361.555
347.561
334.222
321.506
309.384
297.824
286.799
276.281
266.242
256.659
247.507
238.764
230.407
222.418
214.776
207.463
200.464
193.76
187.339
181.184
175.283
169.623
164.193
158.98
153.973
149.164
144.542
140.098
135.824
131.712
127.753
123.941
120.269
116.73
113.319
110.028
106.854
103.79
100.832
97.9745
95.2136
92.5451
89.9648
87.4692
85.0546
82.7176
80.4552
78.2644
76.1425
74.0868
72.0951
70.1652
68.2952
66.4834
64.7284
63.0293
61.3851
59.7957
58.2611
56.7821
55.3599
53.9962
52.6933
51.4527
50.2758
49.1557
48.0945
125.798
53.5768
40.6001
37.4698
37.4704
38.9
41.1307
43.8695
46.9595
50.3115
53.8748
57.6229
61.5451
65.6413
69.9183
74.3873
79.0621
83.9578
89.09
94.4739
100.124
106.053
112.274
118.796
125.628
132.775
140.242
148.031
156.141
164.569
173.312
182.36
191.705
201.335
211.234
221.388
231.776
242.378
253.17
264.128
275.224
286.429
297.71
309.036
320.369
331.673
342.909
354.034
365.006
375.781
386.31
396.547
406.442
415.944
425.004
433.57
441.593
449.024
455.818
461.932
467.332
471.987
475.879
478.997
481.349
482.957
483.869
484.146
483.899
483.249
482.342
481.365
480.552
480.198
480.671
482.418
485.971
491.94
500.976
513.696
530.551
551.636
576.515
604.135
632.918
661.029
686.689
708.432
725.234
736.537
742.204
742.447
737.728
728.671
715.975
700.353
682.48
662.97
642.353
621.078
599.509
577.94
556.594
535.644
515.214
495.391
476.235
457.779
440.041
423.025
406.725
391.125
376.208
361.951
348.328
335.314
322.882
311.004
299.656
288.81
278.444
268.532
259.052
249.984
241.305
232.998
225.043
217.423
210.123
203.125
196.415
189.98
183.805
177.879
172.19
166.726
161.476
156.431
151.581
146.917
142.429
138.111
133.953
129.95
126.092
122.375
118.791
115.335
112.001
108.783
105.676
102.675
99.7767
96.9753
94.267
91.6479
89.1142
86.6624
84.2891
81.9912
79.7657
77.6099
75.5211
73.497
71.5355
69.6346
67.7926
66.0081
64.2799
62.6074
60.9902
59.4282
57.9221
56.4728
55.0817
53.7505
52.4802
51.2715
50.1176
49.0223
112.969
50.7551
38.9908
35.9266
35.7083
36.8125
38.67
41.0122
43.6931
46.627
49.7626
53.0709
56.5375
60.1583
63.9365
67.8801
72.0003
76.3104
80.8248
85.5582
90.525
95.7393
101.214
106.961
112.99
119.31
125.929
132.851
140.079
147.615
155.458
163.604
172.049
180.784
189.801
199.086
208.627
218.405
228.404
238.601
248.975
259.499
270.147
280.889
291.693
302.525
313.351
324.13
334.824
345.389
355.781
365.955
375.862
385.454
394.681
403.491
411.836
419.664
426.929
433.585
439.592
444.915
449.526
453.407
456.553
458.975
460.704
461.78
462.291
462.31
461.937
461.303
460.581
459.998
459.849
460.514
462.477
466.347
472.85
482.797
496.954
515.812
539.279
566.438
595.582
624.572
651.332
674.203
692.086
704.428
711.133
712.459
708.903
701.107
689.773
675.602
659.25
641.306
622.275
602.58
582.563
562.499
542.598
523.02
503.883
485.27
467.238
449.821
433.039
416.898
401.396
386.522
372.262
358.598
345.509
332.975
320.973
309.479
298.473
287.933
277.836
268.163
258.893
250.009
241.492
233.326
225.493
217.979
210.768
203.847
197.203
190.822
184.693
178.805
173.145
167.705
162.473
157.442
152.601
147.942
143.456
139.137
134.977
130.969
127.105
123.38
119.787
116.321
112.976
109.746
106.628
103.615
100.704
97.8903
95.1694
92.5376
89.9912
87.5268
85.1409
82.8305
80.5925
78.4243
76.3233
74.2871
72.3135
70.4006
68.5467
66.7503
65.0103
63.3259
61.6966
60.1224
58.6036
57.141
55.7357
54.3888
53.101
51.8726
50.697
49.5783
98.5433
47.1245
37.1013
34.3923
34.1431
35.0608
36.6547
38.6898
41.0353
43.6126
46.3723
49.2846
52.3329
55.5104
58.8172
62.2587
65.8438
69.584
73.4924
77.5832
81.8707
86.3692
91.0926
96.054
101.266
106.738
112.482
118.504
124.812
131.41
138.301
145.487
152.965
160.733
168.787
177.118
185.718
194.575
203.675
213.002
222.538
232.264
242.156
252.19
262.338
272.572
282.861
293.169
303.461
313.699
323.842
333.848
343.673
353.271
362.596
371.601
380.237
388.458
396.219
403.475
410.186
416.317
421.838
426.728
430.976
434.586
437.575
439.983
441.856
443.225
444.139
444.668
444.909
444.996
445.107
445.492
446.495
448.596
452.465
458.983
469.207
484.149
504.331
529.264
557.264
585.882
612.672
635.74
653.906
666.629
673.86
675.898
673.267
666.61
656.612
643.945
629.226
613.002
595.741
577.828
559.578
541.238
523.001
505.013
487.382
470.186
453.478
437.293
421.652
406.563
392.029
378.042
364.594
351.672
339.26
327.341
315.898
304.912
294.366
284.242
274.522
265.19
256.229
247.622
239.356
231.416
223.786
216.455
209.41
202.637
196.126
189.866
183.845
178.053
172.481
167.12
161.959
156.991
152.208
147.601
143.163
138.887
134.765
130.791
126.96
123.264
119.697
116.256
112.933
109.724
106.625
103.63
100.735
97.9367
95.23
92.6116
90.0777
87.625
85.2502
82.9501
80.722
78.563
76.4706
74.4425
72.4765
70.5706
68.7232
66.9327
65.198
63.5182
61.8928
60.3216
58.8049
57.343
55.937
54.5875
53.2948
52.0591
50.874
49.7442
82.9906
42.5884
34.7208
32.6793
32.6402
33.5682
35.0641
36.9331
39.0645
41.3899
43.8652
46.4628
49.1666
51.9691
54.8692
57.8712
60.9825
64.2136
67.5769
71.0859
74.7547
78.5981
82.6304
86.8657
91.3175
95.9985
100.92
106.094
111.528
117.23
123.207
129.463
136.002
142.824
149.929
157.313
164.972
172.9
181.087
189.522
198.194
207.085
216.18
225.459
234.899
244.477
254.166
263.938
273.762
283.604
293.429
303.201
312.881
322.429
331.805
340.967
349.874
358.486
366.764
374.67
382.17
389.234
395.838
401.963
407.603
412.763
417.444
421.706
425.533
428.919
431.866
434.38
436.475
438.172
439.508
440.543
441.397
442.297
443.671
446.265
451.261
460.216
474.584
494.797
519.554
546.164
571.715
593.977
611.633
624.122
631.422
633.855
631.948