/*--------------------------------*- C++ -*----------------------------------*\
| =========                 |                                                 |
| \\      /  F ield         | OpenFOAM: The Open Source CFD Toolbox           |
|  \\    /   O peration     | Version:  2.2.x                                 |
|   \\  /    A nd           | Web:      www.OpenFOAM.org                      |
|    \\/     M anipulation  |                                                 |
\*---------------------------------------------------------------------------*/
FoamFile
{
    version     2.0;
    format      ascii;
    class       volScalarField;
    location    "200";
    object      k;
}
// * * * * * * * * * * * * * * * * * * * * * * * * * * * * * * * * * * * * * //

dimensions      [0 2 -2 0 0 0 0];

internalField   nonuniform List<scalar> 
12225
(
0.773251
1.11725
1.35401
1.50319
1.59051
1.63662
1.6562
1.65918
1.65207
1.63902
1.62266
1.60466
1.58601
1.56732
1.54895
1.53103
1.51337
1.49719
0.492807
0.515916
0.520102
0.519404
0.516068
0.511206
0.505781
0.500476
0.495717
0.491736
0.48864
0.486457
0.485165
0.484726
0.485109
0.486388
0.489264
0.49405
0.412002
0.424065
0.421822
0.41413
0.404185
0.393368
0.382415
0.371757
0.361654
0.352259
0.343651
0.335863
0.328896
0.32273
0.317342
0.312722
0.30888
0.305712
0.381866
0.385945
0.386335
0.383937
0.379743
0.374454
0.368538
0.362307
0.355975
0.349686
0.343541
0.337607
0.331929
0.326533
0.321438
0.316649
0.312163
0.307986
0.375243
0.375517
0.37493
0.373403
0.37109
0.368179
0.364845
0.36123
0.357445
0.353575
0.349681
0.345814
0.342006
0.338286
0.334669
0.331169
0.327791
0.324557
0.37347
0.372203
0.37088
0.369321
0.367489
0.365407
0.363123
0.360686
0.358142
0.355531
0.352887
0.350235
0.347598
0.344991
0.342427
0.339915
0.337463
0.335097
0.372983
0.3711
0.369344
0.367617
0.365861
0.364052
0.362187
0.360272
0.358319
0.356342
0.354355
0.352369
0.350395
0.348443
0.346518
0.344627
0.342776
0.340987
0.372868
0.370791
0.368855
0.367014
0.365229
0.363476
0.361739
0.36001
0.358289
0.356578
0.35488
0.3532
0.351541
0.349907
0.348303
0.346731
0.345194
0.343713
0.372831
0.37068
0.36866
0.366751
0.36493
0.36318
0.361485
0.359835
0.358224
0.356647
0.355103
0.353591
0.352112
0.350665
0.349253
0.347875
0.346534
0.345247
0.372816
0.370635
0.368576
0.366626
0.364776
0.363013
0.361327
0.359708
0.358149
0.356643
0.355187
0.353777
0.35241
0.351085
0.349801
0.348557
0.347352
0.346203
0.372809
0.370617
0.368541
0.366573
0.364705
0.36293
0.361239
0.359627
0.358086
0.356611
0.355196
0.353837
0.352532
0.351276
0.350067
0.348904
0.347786
0.346724
0.372804
0.370608
0.368525
0.366549
0.364673
0.36289
0.361195
0.359581
0.358044
0.356577
0.355177
0.353839
0.35256
0.351337
0.350166
0.349044
0.347972
0.346959
0.372801
0.370603
0.368517
0.366537
0.364657
0.362871
0.361172
0.359556
0.358018
0.356553
0.355156
0.353825
0.352555
0.351344
0.350187
0.349084
0.348031
0.34704
0.372799
0.370599
0.368511
0.366529
0.364647
0.362859
0.361159
0.359542
0.358003
0.356537
0.355142
0.353812
0.352545
0.351337
0.350186
0.349088
0.348043
0.34706
0.372797
0.370595
0.368507
0.366524
0.364641
0.362851
0.36115
0.359533
0.357993
0.356528
0.355133
0.353804
0.352539
0.351333
0.350183
0.349088
0.348046
0.347066
0.372796
0.370593
0.368503
0.36652
0.364636
0.362846
0.361145
0.359527
0.357988
0.356523
0.355129
0.353801
0.352537
0.351332
0.350185
0.349091
0.348051
0.347072
0.372795
0.370591
0.368501
0.366517
0.364633
0.362843
0.361142
0.359524
0.357986
0.356522
0.355129
0.353802
0.352539
0.351336
0.35019
0.349098
0.348059
0.347082
0.372794
0.370591
0.3685
0.366516
0.364632
0.362842
0.361142
0.359525
0.357987
0.356525
0.355132
0.353807
0.352546
0.351344
0.350199
0.349109
0.348071
0.347095
0.372794
0.37059
0.3685
0.366516
0.364633
0.362844
0.361144
0.359529
0.357992
0.356531
0.35514
0.353816
0.352556
0.351356
0.350212
0.349123
0.348087
0.347112
0.372794
0.370591
0.368501
0.366518
0.364636
0.362848
0.36115
0.359535
0.358
0.356541
0.355152
0.353829
0.352571
0.351372
0.35023
0.349143
0.348107
0.347133
0.372795
0.370593
0.368504
0.366522
0.364642
0.362856
0.36116
0.359548
0.358016
0.356559
0.355173
0.353853
0.352597
0.3514
0.35026
0.349174
0.348139
0.347165
0.372796
0.370596
0.36851
0.366533
0.364657
0.362878
0.361189
0.359584
0.358059
0.356609
0.355228
0.353913
0.35266
0.351465
0.350324
0.349235
0.348196
0.347217
0.372799
0.370606
0.368533
0.366573
0.364719
0.362963
0.361297
0.359713
0.358204
0.356765
0.35539
0.354074
0.352813
0.351604
0.350444
0.349329
0.348261
0.347247
0.372815
0.370661
0.36865
0.366764
0.364987
0.363299
0.361688
0.360139
0.358645
0.357199
0.355796
0.354435
0.353112
0.351827
0.350579
0.349368
0.348194
0.347071
0.37291
0.370958
0.369195
0.367547
0.365958
0.364392
0.36283
0.361264
0.359694
0.358122
0.356555
0.354998
0.353456
0.351935
0.35044
0.348973
0.34754
0.346156
0.373468
0.372365
0.371365
0.37024
0.36891
0.367368
0.365644
0.363779
0.361811
0.359776
0.357701
0.355608
0.353517
0.351442
0.349393
0.347381
0.345413
0.343509
0.376461
0.378227
0.37883
0.378167
0.376543
0.374267
0.371562
0.368583
0.365437
0.362199
0.358924
0.35565
0.352407
0.349217
0.346097
0.343058
0.340111
0.337276
0.392614
0.40136
0.402192
0.399548
0.395339
0.390378
0.385053
0.379569
0.374047
0.368565
0.363181
0.357936
0.352862
0.347981
0.343307
0.338848
0.334607
0.330594
0.438281
0.449757
0.450772
0.449532
0.447772
0.44578
0.443641
0.441401
0.439096
0.436766
0.434448
0.432179
0.429991
0.427908
0.425946
0.424111
0.422391
0.420726
0.544748
0.705348
0.836404
0.946179
1.0421
1.12387
1.19202
1.24764
1.29216
1.32707
1.35384
1.37382
1.3882
1.39803
1.40418
1.40739
1.40829
1.40734
0.0239189
0.0340773
0.0453377
0.0637185
0.0853441
0.107847
0.131092
0.154968
0.179238
0.20374
0.228416
0.253229
0.278153
0.303163
0.32824
0.353365
0.378524
0.403701
0.428886
0.454066
0.479232
0.504375
0.529487
0.554561
0.579591
0.604573
0.629501
0.654372
0.679183
0.703932
0.728618
0.753241
0.7778
0.802297
0.826734
0.851112
0.875435
0.899708
0.923934
0.948119
0.972268
0.996388
1.02049
1.04457
1.06864
1.09272
1.1168
1.1409
1.16502
1.18916
1.21335
1.23757
1.26183
1.28614
1.3105
1.3349
1.35934
1.38383
1.40834
1.43288
1.45742
1.48197
1.5065
1.53102
1.5555
1.57997
1.60443
1.62893
1.65355
1.67844
1.70259
1.72582
1.74792
1.76869
1.78787
1.8052
1.82039
1.83315
1.84314
1.85005
1.85355
1.85334
1.84916
1.84077
1.82801
1.81079
1.78912
1.76308
1.73286
1.69875
1.66111
1.62037
1.57701
1.53153
1.48444
1.43625
1.38744
1.33844
1.28964
1.24139
1.19397
1.14762
1.10251
1.05879
1.01656
0.975866
0.936773
0.899271
0.863403
0.829052
0.796471
0.76631
0.738512
0.71546
0.694806
0.675442
0.657129
0.639766
0.62328
0.60761
0.592702
0.578509
0.564981
0.552074
0.539749
0.527973
0.516713
0.505936
0.495612
0.485715
0.476222
0.467109
0.458354
0.449936
0.44184
0.434048
0.426543
0.419311
0.412336
0.405607
0.399112
0.39284
0.386779
0.380919
0.375251
0.369767
0.364459
0.359319
0.354339
0.349511
0.344832
0.340294
0.335892
0.331621
0.327475
0.32345
0.319542
0.315747
0.312062
0.308484
0.305006
0.301626
0.298341
0.295149
0.292044
0.289024
0.286083
0.283218
0.280422
0.277688
0.275005
0.272358
0.26973
0.267091
0.264397
0.261581
0.2586
0.255481
0.251967
0.24679
0.0561953
0.112345
0.143985
0.173102
0.206008
0.242362
0.280678
0.319971
0.359754
0.399825
0.440104
0.48056
0.521183
0.561968
0.602914
0.64402
0.685285
0.726702
0.768267
0.809969
0.851798
0.893739
0.935778
0.977899
1.02008
1.06232
1.10458
1.14685
1.18912
1.23137
1.27359
1.31576
1.35786
1.3999
1.44187
1.48375
1.52555
1.56727
1.6089
1.65046
1.69195
1.73338
1.77476
1.81612
1.85746
1.89882
1.94022
1.98168
2.02323
2.06491
2.10675
2.14879
2.19105
2.23358
2.27642
2.3196
2.36315
2.40711
2.4515
2.49635
2.54168
2.5875
2.63381
2.6806
2.72786
2.77555
2.82363
2.87203
2.92068
2.96864
3.01613
3.06299
3.10896
3.1537
3.19681
3.23785
3.27629
3.31157
3.34307
3.37011
3.392
3.40803
3.41751
3.41982
3.41439
3.40082
3.37883
3.34835
3.30951
3.26263
3.20824
3.14702
3.07979
3.00747
2.93102
2.85139
2.76953
2.68631
2.60253
2.51889
2.43599
2.35435
2.27434
2.19628
2.12041
2.04685
1.97575
1.90703
1.84088
1.77694
1.71534
1.65753
1.60269
1.55107
1.50216
1.45566
1.41143
1.36935
1.32928
1.29112
1.25474
1.22005
1.18693
1.1553
1.12506
1.09614
1.06845
1.04191
1.01647
0.992068
0.968635
0.946118
0.924468
0.903638
0.883585
0.864264
0.845638
0.82767
0.810327
0.793579
0.777394
0.761744
0.746602
0.731946
0.717752
0.703999
0.690664
0.677729
0.665176
0.652989
0.641152
0.629649
0.618465
0.607586
0.597002
0.586699
0.576669
0.566899
0.557378
0.548098
0.539049
0.530222
0.521611
0.513206
0.505
0.496985
0.489154
0.481498
0.474008
0.466678
0.459497
0.452454
0.445536
0.438731
0.432021
0.425386
0.418766
0.412261
0.406058
0.401369
0.0941414
0.180051
0.228876
0.270612
0.313497
0.359293
0.407444
0.457084
0.507623
0.558735
0.610253
0.66209
0.714206
0.766581
0.819203
0.872071
0.92518
0.978525
1.0321
1.08589
1.13988
1.19406
1.24841
1.30289
1.35748
1.41215
1.46688
1.52164
1.57638
1.63108
1.68572
1.74025
1.79467
1.84892
1.903
1.95689
2.01055
2.06399
2.11717
2.1701
2.22276
2.27515
2.32728
2.37914
2.43075
2.48212
2.53326
2.5842
2.63496
2.68557
2.73607
2.7865
2.83689
2.88729
2.93775
2.98832
3.03906
3.09001
3.14123
3.19278
3.24469
3.29702
3.34979
3.40304
3.45677
3.511
3.56568
3.62076
3.67608
3.73122
3.78622
3.84093
3.89508
3.94833
4.00026
4.05037
4.09808
4.14272
4.1835
4.21959
4.25006
4.27395
4.29029
4.29815
4.29669
4.28519
4.26315
4.23031
4.18667
4.13253
4.06845
3.99525
3.91392
3.82561
3.73156
3.63303
3.53123
3.42732
3.32236
3.21728
3.11289
3.00985
2.9087
2.80981
2.71357
2.62004
2.52954
2.44177
2.35721
2.27658
2.1996
2.12653
2.05714
1.99132
1.92872
1.86913
1.81235
1.75826
1.7067
1.65754
1.61064
1.56588
1.52312
1.48225
1.44316
1.40575
1.36991
1.33555
1.30259
1.27096
1.24056
1.21134
1.18323
1.15618
1.13011
1.10498
1.08075
1.05736
1.03477
1.01294
0.991827
0.971405
0.951636
0.932488
0.913933
0.895941
0.878488
0.861547
0.845096
0.829114
0.813581
0.798476
0.783781
0.769478
0.755553
0.741988
0.728772
0.715889
0.703326
0.691072
0.679116
0.667445
0.656051
0.644923
0.634051
0.623425
0.613039
0.602881
0.592945
0.583221
0.573701
0.564378
0.555243
0.546293
0.537532
0.528976
0.520666
0.512767
0.505711
0.500852
0.127309
0.237041
0.301012
0.353337
0.404118
0.456556
0.511111
0.567362
0.62482
0.683141
0.74211
0.801605
0.861558
0.921933
0.982712
1.04389
1.10545
1.16739
1.2297
1.29237
1.35538
1.41869
1.48229
1.54613
1.61019
1.67441
1.73875
1.80316
1.8676
1.93202
1.99637
2.06059
2.12464
2.18848
2.25205
2.31531
2.37823
2.44075
2.50286
2.56452
2.6257
2.68637
2.74652
2.80613
2.8652
2.92372
2.98169
3.03912
3.09603
3.15244
3.20837
3.26386
3.31896
3.37372
3.42818
3.48242
3.53651
3.59052
3.64453
3.69863
3.7529
3.80744
3.86232
3.91763
3.97343
4.02979
4.08677
4.14438
4.20236
4.26077
4.31956
4.37861
4.4377
4.49655
4.55477
4.61186
4.66721
4.72008
4.7696
4.81478
4.85448
4.88752
4.91262
4.92855
4.93411
4.92828
4.91026
4.87953
4.83592
4.77962
4.71118
4.63148
4.54166
4.44307
4.33716
4.22543
4.10938
3.9904
3.86977
3.74865
3.62801
3.50866
3.3913
3.27627
3.16425
3.05503
2.9494
2.84803
2.75084
2.65795
2.56932
2.48491
2.40461
2.32819
2.25537
2.18596
2.11977
2.05665
1.99644
1.93898
1.88413
1.83174
1.78168
1.7338
1.68799
1.64411
1.60207
1.56175
1.52306
1.4859
1.45019
1.41585
1.3828
1.35098
1.32031
1.29073
1.26219
1.23464
1.20802
1.18229
1.1574
1.13331
1.10998
1.08738
1.06546
1.04421
1.02358
1.00355
0.984099
0.965191
0.946807
0.928923
0.911519
0.894574
0.87807
0.861988
0.846313
0.831029
0.816119
0.801571
0.787372
0.773508
0.759968
0.74674
0.733815
0.721182
0.708831
0.696754
0.684942
0.673388
0.662085
0.65103
0.64022
0.629662
0.619378
0.609414
0.599876
0.590922
0.583034
0.577218
0.155524
0.281249
0.357162
0.418152
0.475435
0.533017
0.59211
0.652775
0.714754
0.777785
0.841679
0.906315
0.971625
1.03757
1.10414
1.17132
1.2391
1.30749
1.37646
1.446
1.51608
1.58668
1.65775
1.72925
1.80112
1.87331
1.94576
2.01839
2.09115
2.16395
2.23673
2.30942
2.38194
2.45422
2.52618
2.59777
2.66891
2.73954
2.80959
2.87902
2.94776
3.01577
3.08301
3.14943
3.21501
3.27972
3.34353
3.40645
3.46846
3.52957
3.5898
3.64917
3.70772
3.7655
3.82257
3.87899
3.93486
3.99027
4.04532
4.10014
4.15485
4.20959
4.2645
4.31973
4.37541
4.4317
4.48872
4.54659
4.60525
4.66486
4.72547
4.78706
4.84952
4.91264
4.97612
5.0395
5.10219
5.16342
5.22226
5.27757
5.32804
5.3722
5.40848
5.43525
5.45094
5.45413
5.44361
5.41855
5.37854
5.32361
5.25427
5.17142
5.07633
4.97054
4.85574
4.73367
4.60611
4.47469
4.3409
4.20616
4.0716
3.93807
3.80673
3.67736
3.55171
3.43019
3.313
3.20041
3.09248
2.98926
2.89067
2.79664
2.707
2.62156
2.54005
2.46228
2.38806
2.31722
2.24958
2.18499
2.12329
2.06432
2.00794
1.95398
1.90233
1.85284
1.8054
1.75988
1.71618
1.6742
1.63384
1.59501
1.55763
1.52162
1.48691
1.45342
1.4211
1.38989
1.35972
1.33055
1.30233
1.275
1.24854
1.22288
1.19801
1.17387
1.15044
1.12769
1.10558
1.08409
1.06319
1.04285
1.02305
1.00377
0.984982
0.966676
0.948827
0.93142
0.914436
0.897861
0.881679
0.865878
0.850443
0.835362
0.820626
0.806221
0.79214
0.778373
0.764912
0.751751
0.738887
0.726319
0.714052
0.702101
0.690504
0.679326
0.668697
0.658774
0.649966
0.642946
0.178328
0.313132
0.397457
0.464849
0.527094
0.588541
0.65084
0.71443
0.779299
0.845316
0.912357
0.980338
1.04921
1.11896
1.18956
1.26104
1.33337
1.40658
1.48063
1.55552
1.63121
1.70767
1.78486
1.8627
1.94115
2.02012
2.09954
2.17932
2.25938
2.33961
2.41992
2.50022
2.58041
2.66038
2.74005
2.8193
2.89806
2.97622
3.05369
3.1304
3.20625
3.28116
3.35508
3.42792
3.49963
3.57015
3.63945
3.70747
3.77419
3.8396
3.90368
3.96645
4.02793
4.08814
4.14716
4.20503
4.26186
4.31774
4.37281
4.42721
4.4811
4.53467
4.58813
4.64167
4.69554
4.74997
4.80517
4.86139
4.91879
4.97766
5.03821
5.10055
5.16474
5.23071
5.29828
5.36711
5.43667
5.50624
5.57482
5.64119
5.70384
5.76103
5.81083
5.85118
5.88002
5.89543
5.89575
5.87969
5.84652
5.79607
5.72874
5.64546
5.54763
5.437
5.31548
5.18511
5.04793
4.9059
4.7606
4.61389
4.46706
4.32054
4.17707
4.03674
3.90038
3.76845
3.64124
3.51894
3.40164
3.28934
3.18197
3.07943
2.98156
2.88814
2.79896
2.71379
2.63244
2.55474
2.48049
2.40955
2.34172
2.27685
2.21478
2.15535
2.09843
2.04386
1.99152
1.94129
1.89304
1.84666
1.80206
1.75914
1.7178
1.67796
1.63955
1.60248
1.56669
1.53212
1.49869
1.46636
1.43507
1.40477
1.37542
1.34696
1.31935
1.29256
1.26655
1.24128
1.21673
1.19285
1.16962
1.14702
1.12501
1.10357
1.08268
1.06232
1.04247
1.0231
1.00421
0.985759
0.967749
0.95016
0.932978
0.916189
0.899782
0.883746
0.868071
0.852749
0.837772
0.823137
0.808841
0.794889
0.781291
0.768071
0.755277
0.742988
0.731336
0.720464
0.710674
0.7024
0.195699
0.333933
0.42342
0.494945
0.560498
0.624514
0.688844
0.754171
0.820679
0.888368
0.957197
1.02713
1.09816
1.17028
1.24351
1.31786
1.39335
1.46997
1.54774
1.62662
1.7066
1.78763
1.86966
1.95263
2.03645
2.12106
2.20634
2.29221
2.37854
2.46523
2.55216
2.63921
2.72625
2.81316
2.89981
2.98608
3.07185
3.15699
3.24138
3.32491
3.40746
3.48893
3.5692
3.64818
3.72578
3.8019
3.87647
3.94942
4.02069
4.09023
4.158
4.22398
4.28816
4.35056
4.41121
4.47017
4.5275
4.58331
4.63774
4.69095
4.74312
4.79447
4.84527
4.89579
4.94634
4.99724
5.04885
5.10151
5.15562
5.21166
5.27002
5.33103
5.39495
5.46191
5.53195
5.6049
5.68038
5.75776
5.83609
5.91405
5.98999
6.06187
6.12736
6.1839
6.22886
6.25969
6.27412
6.27033
6.24715
6.20414
6.14157
6.06038
5.9621
5.84869
5.7224
5.58546
5.4403
5.28934
5.13383
4.97665
4.81976
4.66407
4.51108
4.36154
4.21614
4.07537
3.93955
3.80886
3.6834
3.56316
3.44809
3.33807
3.23294
3.1325
3.03652
2.94479
2.85712
2.77332
2.69318
2.61655
2.54323
2.47306
2.40587
2.3415
2.2798
2.22062
2.16383
2.10929
2.05688
2.00649
1.958
1.91131
1.86634
1.82298
1.78115
1.74078
1.70178
1.6641
1.62766
1.59241
1.55827
1.52522
1.49318
1.46211
1.43197
1.40271
1.3743
1.3467
1.31986
1.29377
1.26838
1.24367
1.2196
1.19616
1.17331
1.15104
1.12932
1.10813
1.08745
1.06726
1.04755
1.0283
1.00949
0.991109
0.973149
0.955595
0.938438
0.921671
0.905286
0.889282
0.87366
0.858425
0.843596
0.829201
0.815296
0.801965
0.789336
0.777535
0.766737
0.757227
0.207941
0.345132
0.437045
0.510674
0.577943
0.643243
0.708484
0.774481
0.841554
0.90981
0.979286
1.05
1.12198
1.19525
1.26984
1.3458
1.42315
1.5019
1.58207
1.66364
1.7466
1.8309
1.91648
2.0033
2.09125
2.18024
2.27018
2.36095
2.45242
2.54446
2.63693
2.7297
2.82262
2.91553
3.0083
3.10076
3.19277
3.28418
3.37483
3.46459
3.55331
3.64084
3.72704
3.81179
3.89496
3.97642
4.05606
4.13376
4.20944
4.283
4.35437
4.42349
4.49032
4.55483
4.61702
4.67691
4.73455
4.79003
4.84347
4.89502
4.94487
4.99327
5.04051
5.08691
5.13286
5.17877
5.22509
5.27233
5.3211
5.37209
5.42593
5.4832
5.54443
5.61004
5.68036
5.75548
5.8353
5.91935
6.00682
6.0964
6.1863
6.2742
6.35733
6.43254
6.49649
6.5459
6.57772
6.58944
6.57936
6.54669
6.49152
6.41482
6.31821
6.20395
6.07477
5.93288
5.78119
5.62328
5.46102
5.29676
5.13237
4.96929
4.80877
4.65174
4.49892
4.35082
4.20779
4.07004
3.93767
3.81069
3.68904
3.5726
3.46122
3.35471
3.25285
3.15544
3.06226
2.97312
2.88783
2.80619
2.72803
2.65316
2.58143
2.51265
2.44669
2.38338
2.32259
2.26417
2.20801
2.15398
2.10197
2.05186
2.00357
1.957
1.91206
1.86866
1.82674
1.78621
1.747
1.70906
1.67232
1.63672
1.60221
1.56874
1.53627
1.50474
1.47411
1.44435
1.41542
1.38728
1.35989
1.33323
1.30727
1.28197
1.25732
1.23328
1.20983
1.18695
1.16463
1.14283
1.12155
1.10075
1.08044
1.0606
1.0412
1.02224
1.00372
0.985616
0.967932
0.950665
0.933818
0.917402
0.901436
0.885956
0.871018
0.85671
0.843148
0.830455
0.818649
0.807962
0.215487
0.34828
0.440467
0.514523
0.582097
0.647485
0.712582
0.778261
0.844926
0.912762
0.981867
1.05231
1.12414
1.19744
1.27224
1.34861
1.42659
1.50622
1.58751
1.67046
1.75507
1.84129
1.92908
2.01837
2.10908
2.20111
2.29436
2.38868
2.48397
2.58006
2.67682
2.77407
2.87167
2.96943
3.0672
3.1648
3.26205
3.35878
3.45481
3.54998
3.6441
3.737
3.82852
3.91849
4.00674
4.09313
4.17748
4.25967
4.33954
4.41697
4.49184
4.56405
4.6335
4.70013
4.76389
4.82476
4.88273
4.93787
4.99024
5.03998
5.08727
5.13234
5.17548
5.21704
5.25746
5.29723
5.33688
5.37704
5.41855
5.46231
5.50921
5.56013
5.61593
5.67739
5.74522
5.81993
5.90177
5.99062
6.08591
6.18647
6.29046
6.39529
6.49768
6.59384
6.67958
6.75068
6.80313
6.83355
6.83961
6.82005
6.77478
6.70488
6.61195
6.49853
6.36846
6.22463
6.0702
5.90835
5.74165
5.57246
5.40276
5.23415
5.06795
4.90516
4.74656
4.59269
4.44394
4.30053
4.16258
4.03011
3.90308
3.78137
3.66483
3.55328
3.44651
3.34432
3.2465
3.15285
3.06316
2.97725
2.89493
2.81602
2.74036
2.66776
2.59808
2.53115
2.46685
2.40502
2.34554
2.28828
2.23314
2.17999
2.12874
2.0793
2.03156
1.98546
1.94089
1.89779
1.8561
1.81573
1.77663
1.73874
1.702
1.66636
1.63177
1.59818
1.56554
1.53383
1.50299
1.47299
1.44379
1.41536
1.38767
1.36069
1.33439
1.30875
1.28373
1.25933
1.2355
1.21224
1.18953
1.16734
1.14566
1.12448
1.10378
1.08355
1.06378
1.04446
1.0256
1.00718
0.989223
0.971732
0.954732
0.93826
0.922375
0.907158
0.892713
0.879148
0.866391
0.854617
0.2188
0.344892
0.435767
0.508963
0.575689
0.640128
0.704135
0.768601
0.833975
0.900495
0.968306
1.03751
1.10821
1.18048
1.2544
1.33004
1.40748
1.48674
1.56788
1.65091
1.73581
1.82257
1.91115
2.00148
2.09349
2.18708
2.28214
2.37855
2.47617
2.57484
2.67441
2.77472
2.87558
2.97682
3.07825
3.17968
3.28093
3.38178
3.48206
3.58156
3.68008
3.77743
3.8734
3.96781
4.06045
4.15114
4.23969
4.32591
4.40962
4.49065
4.56883
4.64402
4.71608
4.78487
4.85029
4.91228
4.97077
5.02576
5.07727
5.12538
5.17022
5.21198
5.25094
5.28743
5.3219
5.35485
5.38691
5.41878
5.45147
5.48609
5.52379
5.56577
5.61323
5.66742
5.72951
5.80055
5.88133
5.97225
6.07318
6.18327
6.30076
6.42284
6.54574
6.66484
6.775
6.87084
6.9471
6.9993
7.02439
7.02054
6.98744
6.92658
6.84017
6.73127
6.60353
6.4605
6.30566
6.14232
5.97335
5.8013
5.62829
5.45606
5.28601
5.11922
4.95653
4.79851
4.64558
4.49799
4.35587
4.21926
4.08812
3.96235
3.84179
3.72629
3.61565
3.50965
3.4081
3.31079
3.21753
3.12812
3.04237
2.96011
2.88116
2.80536
2.73254
2.66255
2.59525
2.53051
2.46818
2.40815
2.35029
2.29451
2.24069
2.18874
2.13857
2.09009
2.04321
1.99786
1.95397
1.91147
1.87029
1.83037
1.79166
1.75409
1.71763
1.68222
1.64781
1.61436
1.58183
1.55018
1.51937
1.48937
1.46016
1.43168
1.40392
1.37685
1.35045
1.32468
1.29953
1.27497
1.25099
1.22756
1.20467
1.1823
1.16044
1.13908
1.1182
1.09781
1.0779
1.05846
1.03951
1.02107
1.00314
0.985786
0.969046
0.953001
0.93774
0.923345
0.909719
0.896965
0.218321
0.336361
0.424863
0.496306
0.561325
0.623991
0.686117
0.7486
0.811913
0.876328
0.942025
1.00914
1.07778
1.14806
1.22009
1.29393
1.36969
1.44742
1.52716
1.60896
1.69281
1.77871
1.86664
1.95653
2.04831
2.14191
2.23722
2.33411
2.43244
2.53208
2.63286
2.7346
2.83714
2.94028
3.04383
3.14759
3.25136
3.35493
3.45808
3.5606
3.66228
3.7629
3.86223
3.96006
4.05617
4.15034
4.24234
4.33195
4.41897
4.50317
4.58435
4.6623
4.73685
4.8078
4.875
4.9383
4.99759
5.05279
5.10385
5.15078
5.19363
5.23255
5.26772
5.29944
5.32811
5.35423
5.37843
5.40144
5.42438
5.44852
5.47522
5.50596
5.54234
5.58605
5.63884
5.7024
5.77825
5.86756
5.9709
6.088
6.21749
6.35643
6.50047
6.64413
6.78105
6.90452
7.00774
7.08462
7.13151
7.1463
7.12875
7.08028
7.00345
6.90167
6.77885
6.63898
6.4859
6.32318
6.154
5.98107
5.8067
5.63274
5.46069
5.2917
5.12664
4.96614
4.81063
4.6604
4.51558
4.37622
4.24229
4.11371
3.99034
3.87202
3.75856
3.64976
3.54543
3.44536
3.34937
3.25726
3.16885
3.08395
3.0024
2.92403
2.84869
2.77622
2.70648
2.63933
2.57465
2.51232
2.45221
2.39422
2.33824
2.28419
2.23195
2.18145
2.13261
2.08535
2.03959
1.99526
1.9523
1.91065
1.87024
1.83103
1.79296
1.75598
1.72004
1.6851
1.65111
1.61805
1.58586
1.55451
1.52397
1.49421
1.4652
1.4369
1.4093
1.38236
1.35607
1.33039
1.30532
1.28082
1.25688
1.23349
1.21064
1.1883
1.16648
1.14516
1.12434
1.10403
1.08423
1.06496
1.04624
1.0281
1.01062
0.993836
0.977841
0.962692
0.948292
0.93467
0.214462
0.323916
0.40945
0.478624
0.541394
0.601714
0.661374
0.721273
0.781905
0.843566
0.906457
0.970737
1.03654
1.10399
1.1732
1.24427
1.31731
1.39238
1.46956
1.54888
1.63038
1.71405
1.79989
1.88785
1.97788
2.0699
2.16383
2.25954
2.35691
2.45581
2.55608
2.65754
2.76003
2.86336
2.96734
3.07176
3.17641
3.28107
3.38554
3.48959
3.59298
3.69549
3.79688
3.89691
3.99535
4.09194
4.18645
4.27862
4.36821
4.45497
4.53865
4.61901
4.69581
4.76882
4.83782
4.90261
4.963
5.01884
5.06999
5.11639
5.158
5.19486
5.22708
5.25486
5.27851
5.29847
5.3153
5.32972
5.34284
5.35601
5.37072
5.38865
5.41173
5.44208
5.48203
5.53402
5.60047
5.68353
5.78483
5.9051
6.04386
6.19827
6.36333
6.53264
6.6983
6.85171
6.98451
7.0896
7.16201
7.19902
7.20016
7.16689
7.10211
7.00965
6.89384
6.75913
6.60975
6.44961
6.28214
6.11026
5.93644
5.76264
5.59044
5.42104
5.25537
5.09408
4.93763
4.78631
4.64027
4.49958
4.36422
4.23412
4.10914
3.98914
3.87395
3.76338
3.65723
3.55532
3.45747
3.36347
3.27316
3.18636
3.1029
3.02262
2.94538
2.87102
2.7994
2.7304
2.66388
2.59973
2.53784
2.47809
2.42038
2.36462
2.31072
2.25859
2.20815
2.15932
2.11203
2.0662
2.02178
1.9787
1.9369
1.89633
1.85693
1.81865
1.78145
1.74527
1.71009
1.67584
1.64251
1.61005
1.57842
1.5476
1.51754
1.48824
1.45964
1.43174
1.4045
1.3779
1.35192
1.32654
1.30175
1.27752
1.25384
1.2307
1.20809
1.186
1.16444
1.1434
1.1229
1.10294
1.08355
1.06477
1.04665
1.02925
1.01261
0.996805
0.981738
0.967366
0.208543
0.308676
0.391035
0.457812
0.518124
0.575815
0.632668
0.689599
0.747123
0.805556
0.86512
0.925986
0.988305
1.05221
1.11783
1.18529
1.25468
1.3261
1.39963
1.47532
1.55323
1.63336
1.71573
1.80032
1.88708
1.97596
2.06688
2.15975
2.25446
2.35088
2.44886
2.54827
2.64892
2.75064
2.85325
2.95654
3.06032
3.16436
3.26845
3.37237
3.47588
3.57874
3.68071
3.78154
3.88098
3.97877
4.07464
4.16834
4.25958
4.34809
4.4336
4.51582
4.59448
4.6693
4.74001
4.80634
4.86806
4.92492
4.97673
5.02332
5.06456
5.10038
5.1308
5.15588
5.17582
5.19093
5.20167
5.20864
5.21287
5.21566
5.21851
5.22319
5.23178
5.24675
5.27094
5.30752
5.35989
5.43144
5.52518
5.64323
5.78612
5.95199
6.13616
6.33122
6.52751
6.71418
6.88059
7.01775
7.11921
7.1815
7.20389
7.18802
7.13721
7.05582
6.94874
6.82089
6.67696
6.52117
6.35722
6.18825
6.01684
5.84505
5.67452
5.50652
5.34199
5.18159
5.02581
4.87495
4.72918
4.58858
4.45313
4.32277
4.19739
4.07686
3.96102
3.84969
3.74269
3.63985
3.54099
3.44592
3.35448
3.2665
3.18183
3.10031
3.02179
2.94614
2.87322
2.8029
2.73506
2.6696
2.60639
2.54533
2.48633
2.42929
2.37413
2.32075
2.26908
2.21904
2.17057
2.12359
2.07803
2.03384
1.99095
1.94931
1.90887
1.86958
1.83139
1.79425
1.75812
1.72295
1.68872
1.65539
1.62291
1.59125
1.56039
1.53028
1.50092
1.47226
1.44428
1.41697
1.39029
1.36422
1.33876
1.31387
1.28956
1.26579
1.24257
1.2199
1.19775
1.17615
1.15509
1.1346
1.11469
1.0954
1.07677
1.05885
1.04169
1.02533
1.00968
0.994706
0.200341
0.29174
0.370912
0.435348
0.493199
0.548177
0.602071
0.655826
0.70998
0.764872
0.820739
0.877765
0.936109
0.995914
1.05731
1.12044
1.1854
1.2523
1.32123
1.39227
1.46548
1.54089
1.61853
1.69841
1.78049
1.86476
1.95116
2.03961
2.13002
2.22229
2.3163
2.41191
2.50897
2.60733
2.7068
2.8072
2.90834
3.01002
3.11202
3.21413
3.3161
3.41771
3.51872
3.61886
3.71789
3.81554
3.91153
4.00559
4.09742
4.18674
4.27324
4.35662
4.43657
4.51278
4.58493
4.65272
4.71584
4.77399
4.82692
4.87436
4.9161
4.95196
4.98183
5.00567
5.02352
5.03554
5.04204
5.04346
5.04065
5.03475
5.0271
5.01936
5.0136
5.01239
5.01886
5.03672
5.07027
5.12419
5.20324
5.31158
5.45186
5.62402
5.82426
6.04458
6.27329
6.49654
6.70052
6.87354
7.00734
7.09751
7.14318
7.14633
7.11086
7.04183
6.94478
6.8252
6.6882
6.53838
6.37966
6.21534
6.04812
5.88014
5.71308
5.54822
5.38652
5.22867
5.07514
4.92626
4.7822
4.64306
4.50882
4.37945
4.25485
4.13491
4.01946
3.90837
3.80146
3.69857
3.59954
3.5042
3.41239
3.32396
3.23875
3.15663
3.07746
3.00111
2.92744
2.85634
2.7877
2.72141
2.65736
2.59545
2.53559
2.47769
2.42166
2.36743
2.31491
2.26403
2.21472
2.16692
2.12055
2.07557
2.0319
1.98951
1.94832
1.9083
1.86939
1.83156
1.79475
1.75893
1.72405
1.69008
1.65699
1.62474
1.5933
1.56263
1.53271
1.50352
1.47502
1.44719
1.42002
1.39347
1.36753
1.34218
1.31742
1.29321
1.26957
1.24647
1.22392
1.20192
1.18047
1.15959
1.13931
1.11964
1.10064
1.08234
1.06477
1.04798
1.03186
1.01642
0.189686
0.273449
0.3496
0.41192
0.467518
0.519935
0.570958
0.621559
0.672306
0.723559
0.775567
0.828523
0.882591
0.93792
0.994647
1.0529
1.11282
1.1745
1.23805
1.30357
1.37113
1.4408
1.51261
1.58659
1.66276
1.74111
1.8216
1.90419
1.98882
2.07541
2.16387
2.25408
2.34592
2.43926
2.53393
2.62977
2.72661
2.82426
2.92252
3.02118
3.12003
3.21883
3.31734
3.41533
3.51254
3.60869
3.70352
3.79674
3.88806
3.97718
4.06377
4.14752
4.22811
4.30519
4.37842
4.44746
4.51196
4.57159
4.626
4.67488
4.71793
4.75488
4.78551
4.80964
4.82719
4.83815
4.84265
4.84089
4.83357
4.82152
4.80577
4.78771
4.76915
4.75249
4.74079
4.73798
4.74891
4.7794
4.83605
4.92565
5.0541
5.22456
5.43547
5.67904
5.94132
6.20445
6.4501
6.66282
6.832
6.9522
7.02257
7.04569
7.02633
6.97044
6.8843
6.77403
6.64522
6.50276
6.3508
6.19277
6.03142
5.86895
5.70705
5.547
5.38976
5.23602
5.08626
4.9408
4.79984
4.66346
4.53168
4.40448
4.28178
4.16347
4.04943
3.93953
3.83361
3.73152
3.63313
3.53828
3.44683
3.35864
3.27356
3.19147
3.11225
3.03576
2.9619
2.89055
2.82161
2.75497
2.69054
2.62823
2.56794
2.50959
2.4531
2.39839
2.3454
2.29403
2.24424
2.19595
2.14911
2.10364
2.05951
2.01665
1.97501
1.93454
1.8952
1.85694
1.81972
1.78349
1.74822
1.71388
1.68041
1.6478
1.61601
1.585
1.55476
1.52525
1.49644
1.46831
1.44085
1.41402
1.3878
1.36219
1.33716
1.31271
1.28881
1.26547
1.24269
1.22045
1.19878
1.17768
1.15717
1.13728
1.11803
1.09948
1.08164
1.06453
1.04808
1.03229
0.176585
0.254067
0.327388
0.387889
0.4416
0.491816
0.540292
0.588009
0.635557
0.683309
0.731524
0.780401
0.830105
0.880788
0.932591
0.985651
1.0401
1.09607
1.15367
1.21301
1.27419
1.33729
1.40238
1.46952
1.53875
1.61008
1.68351
1.75904
1.83664
1.91625
1.99781
2.08124
2.16645
2.25332
2.34172
2.43153
2.52258
2.61471
2.70774
2.80148
2.89573
2.99027
3.08489
3.17934
3.27338
3.36675
3.45919
3.5504
3.64011
3.72799
3.81375
3.89705
3.97755
4.05491
4.12876
4.19874
4.26448
4.3256
4.38173
4.4325
4.47755
4.51653
4.54912
4.57505
4.59408
4.60605
4.61092
4.60867
4.59981
4.58477
4.56422
4.53911
4.51079
4.48118
4.45291
4.42958
4.41604
4.41867
4.44556
4.50631
4.61107
4.76821
4.98083
5.24311
5.53903
5.84527
6.13697
6.39335
6.60066
6.75244
6.84816
6.89143
6.88822
6.84559
6.77076
6.67047
6.55078
6.41684
6.27298
6.12269
5.96875
5.81336
5.65818
5.50448
5.3532
5.20503
5.06043
4.91974
4.78314
4.65074
4.52258
4.39865
4.27888
4.1632
4.0515
3.94367
3.83958
3.73911
3.64212
3.54849
3.45808
3.37078
3.28646
3.20501
3.1263
3.05024
2.97671
2.90562
2.83686
2.77035
2.706
2.64371
2.58341
2.52501
2.46845
2.41365
2.36053
2.30904
2.2591
2.21066
2.16366
2.11803
2.07373
2.0307
1.98889
1.94826
1.90876
1.87034
1.83296
1.79658
1.76117
1.72668
1.69309
1.66035
1.62843
1.59731
1.56696
1.53734
1.50844
1.48022
1.45266
1.42575
1.39946
1.37377
1.34867
1.32415
1.30019
1.27679
1.25394
1.23164
1.2099
1.18873
1.16815
1.14817
1.12883
1.11016
1.09218
1.07489
1.05823
1.04221
0.161261
0.233932
0.304563
0.363546
0.415839
0.464399
0.510874
0.556217
0.601009
0.645626
0.690329
0.735319
0.780768
0.826829
0.873651
0.92138
0.97016
1.02013
1.07142
1.12417
1.17849
1.23449
1.29227
1.35191
1.41347
1.47701
1.54257
1.61017
1.6798
1.75145
1.8251
1.9007
1.97818
2.05746
2.13845
2.22104
2.3051
2.39049
2.47705
2.56463
2.65305
2.7421
2.83158
2.92128
3.01097
3.10039
3.1893
3.27741
3.36446
3.45013
3.53412
3.61611
3.69576
3.77272
3.84662
3.91711
3.98379
4.04627
4.10416
4.15706
4.20456
4.24626
4.28179
4.31075
4.33282
4.34771
4.35515
4.35509
4.34774
4.33317
4.3116
4.28348
4.24959
4.21114
4.16998
4.12887
4.09192
4.06511
4.05701
4.07935
4.14689
4.27529
4.476
4.74876
5.0767
5.42918
5.77169
6.07571
6.3234
6.50736
6.62798
6.69049
6.70253
6.67256
6.6088
6.51869
6.40868
6.28414
6.14945
6.00814
5.86294
5.71599
5.56892
5.42294
5.27897
5.13766
4.99948
4.86474
4.73365
4.60633
4.48282
4.36314
4.24725
4.13509
4.02659
3.92165
3.82016
3.72204
3.62716
3.53542
3.44671
3.36092
3.27795
3.1977
3.12006
3.04494
2.97225
2.9019
2.83379
2.76786
2.70401
2.64217
2.58226
2.52421
2.46795
2.41342
2.36054