/*--------------------------------*- C++ -*----------------------------------*\
| =========                 |                                                 |
| \\      /  F ield         | OpenFOAM: The Open Source CFD Toolbox           |
|  \\    /   O peration     | Version:  2.2.x                                 |
|   \\  /    A nd           | Web:      www.OpenFOAM.org                      |
|    \\/     M anipulation  |                                                 |
\*---------------------------------------------------------------------------*/
FoamFile
{
    version     2.0;
    format      ascii;
    class       volScalarField;
    location    "200";
    object      nut;
}
// * * * * * * * * * * * * * * * * * * * * * * * * * * * * * * * * * * * * * //

dimensions      [0 2 -1 0 0 0 0];

internalField   nonuniform List<scalar> 
12225
(
3.09428e-05
3.7194e-05
4.09459e-05
4.31425e-05
4.4378e-05
4.50168e-05
4.52855e-05
4.53264e-05
4.52293e-05
4.50506e-05
4.48256e-05
4.45766e-05
4.43172e-05
4.40559e-05
4.37975e-05
4.35443e-05
4.32934e-05
4.30628e-05
0.000116597
6.93501e-05
5.1586e-05
4.23956e-05
3.71349e-05
3.39023e-05
3.18104e-05
3.04118e-05
2.94627e-05
2.88204e-05
2.83968e-05
2.81347e-05
2.79953e-05
2.79511e-05
2.79822e-05
2.80724e-05
2.82082e-05
2.83479e-05
0.000365053
0.00022314
0.000162324
0.000127753
0.000105851
9.10284e-05
8.04575e-05
7.26e-05
6.65656e-05
6.18089e-05
5.79787e-05
5.48399e-05
5.2229e-05
5.0028e-05
4.81474e-05
4.65111e-05
4.50383e-05
4.36743e-05
0.00064456
0.000478938
0.000378467
0.000313119
0.000267923
0.000235252
0.000210746
0.000191787
0.000176735
0.000164519
0.000154415
0.000145914
0.000138652
0.000132356
0.000126817
0.000121859
0.000117328
0.000113168
0.000789242
0.000696688
0.000611679
0.000541661
0.000485514
0.00044059
0.000404344
0.000374738
0.000350237
0.000329699
0.000312272
0.000297313
0.000284327
0.00027293
0.000262812
0.00025372
0.000245445
0.000237922
0.000836136
0.000801984
0.000758751
0.0007136
0.000670502
0.000631207
0.00059618
0.000565266
0.000538063
0.000514109
0.00049295
0.000474181
0.000457444
0.00044243
0.000428872
0.000416538
0.000405235
0.000394941
0.000848363
0.000838491
0.00082276
0.000802728
0.000780203
0.000756712
0.000733335
0.000710748
0.000689326
0.000669244
0.00065055
0.000633212
0.000617156
0.000602283
0.000588484
0.000575648
0.000563677
0.000552634
0.000850836
0.000847517
0.000841575
0.000833011
0.000822235
0.000809831
0.00079639
0.000782417
0.000768304
0.000754337
0.000740711
0.000727548
0.000714918
0.000702851
0.000691351
0.000680401
0.000669984
0.000660239
0.000851476
0.000850221
0.000847983
0.000844534
0.000839827
0.000833958
0.000827112
0.000819509
0.000811366
0.000802877
0.000794205
0.000785482
0.000776807
0.000768251
0.000759866
0.000751684
0.000743733
0.000736161
0.000851642
0.000851029
0.000850142
0.000848846
0.000847043
0.000844688
0.000841782
0.000838365
0.000834497
0.000830253
0.000825707
0.000820932
0.000815993
0.000810946
0.000805839
0.000800709
0.000795595
0.000790619
0.000851674
0.000851219
0.00085072
0.000850127
0.000849393
0.00084848
0.00084736
0.000846019
0.000844455
0.000842676
0.0008407
0.000838545
0.000836235
0.000833793
0.000831241
0.000828601
0.000825898
0.000823206
0.000851676
0.00085125
0.000850835
0.000850417
0.000849983
0.000849517
0.000849004
0.000848432
0.000847792
0.000847079
0.000846289
0.000845422
0.00084448
0.000843468
0.00084239
0.000841253
0.000840066
0.000838866
0.000851673
0.000851249
0.000850847
0.000850461
0.000850089
0.000849725
0.000849365
0.000849004
0.000848637
0.000848261
0.000847872
0.000847468
0.000847046
0.000846607
0.000846149
0.000845674
0.000845183
0.000844695
0.00085167
0.000851245
0.000850842
0.000850459
0.000850095
0.000849748
0.000849416
0.000849097
0.000848789
0.00084849
0.0008482
0.000847916
0.000847639
0.000847365
0.000847096
0.00084683
0.00084657
0.000846327
0.000851668
0.000851241
0.000850837
0.000850453
0.000850089
0.000849743
0.000849414
0.000849101
0.000848802
0.000848517
0.000848245
0.000847985
0.000847736
0.000847498
0.000847271
0.000847054
0.000846849
0.000846666
0.000851666
0.000851238
0.000850833
0.000850448
0.000850084
0.000849737
0.000849409
0.000849096
0.000848799
0.000848516
0.000848247
0.000847992
0.000847749
0.000847518
0.000847298
0.00084709
0.000846896
0.000846725
0.000851665
0.000851236
0.00085083
0.000850445
0.00085008
0.000849734
0.000849405
0.000849093
0.000848797
0.000848516
0.000848248
0.000847995
0.000847754
0.000847525
0.000847308
0.000847103
0.000846912
0.000846743
0.000851664
0.000851235
0.000850828
0.000850443
0.000850078
0.000849733
0.000849405
0.000849094
0.000848799
0.000848519
0.000848253
0.000848001
0.000847762
0.000847535
0.00084732
0.000847117
0.000846926
0.000846759
0.000851664
0.000851235
0.000850828
0.000850444
0.00085008
0.000849735
0.000849408
0.000849098
0.000848804
0.000848526
0.000848261
0.00084801
0.000847772
0.000847546
0.000847332
0.000847129
0.000846939
0.000846772
0.000851664
0.000851236
0.00085083
0.000850446
0.000850083
0.000849739
0.000849413
0.000849103
0.000848809
0.000848529
0.000848262
0.000848008
0.000847765
0.000847533
0.000847311
0.000847099
0.000846898
0.000846718
0.000851665
0.000851237
0.000850832
0.000850448
0.000850083
0.000849734
0.000849399
0.000849076
0.000848761
0.000848454
0.000848152
0.000847854
0.000847558
0.000847264
0.000846971
0.000846678
0.000846389
0.000846113
0.000851666
0.000851236
0.000850824
0.000850421
0.000850018
0.000849606
0.000849176
0.000848722
0.000848236
0.000847717
0.00084716
0.000846567
0.000845938
0.000845274
0.00084458
0.000843858
0.000843115
0.000842369
0.00085166
0.000851194
0.000850683
0.000850082
0.000849352
0.00084846
0.000847387
0.000846125
0.000844676
0.00084305
0.000841265
0.000839339
0.000837295
0.000835154
0.000832939
0.000830671
0.00082837
0.000826078
0.000851569
0.000850738
0.000849414
0.000847438
0.000844737
0.00084131
0.000837213
0.000832539
0.000827396
0.000821896
0.000816143
0.000810232
0.000804244
0.000798247
0.000792297
0.000786438
0.000780707
0.000775174
0.000850707
0.000847145
0.000840935
0.000832161
0.000821253
0.000808781
0.000795314
0.000781335
0.000767229
0.000753277
0.000739681
0.000726572
0.000714035
0.000702113
0.000690826
0.000680174
0.000670147
0.000660781
0.000844117
0.000825254
0.000798619
0.000767912
0.000735955
0.00070459
0.000674854
0.00064723
0.000621872
0.000598752
0.000577751
0.000558705
0.000541438
0.000525775
0.000511553
0.000498622
0.000486848
0.000476158
0.000803439
0.000727235
0.000652894
0.00058806
0.000533373
0.000487735
0.000449631
0.000417645
0.000390602
0.000367569
0.000347809
0.000330738
0.000315894
0.000302909
0.000291487
0.00028139
0.000272427
0.000264461
0.000625892
0.000466244
0.000370435
0.000306599
0.000261294
0.000227872
0.000202432
0.000182563
0.000166714
0.00015385
0.000143254
0.000134415
0.00012696
0.000120611
0.000115159
0.000110444
0.000106345
0.000102785
0.000254189
0.000158495
0.000118213
9.49009e-05
7.99109e-05
6.9712e-05
6.24693e-05
5.71543e-05
5.31543e-05
5.00831e-05
4.7687e-05
4.5793e-05
4.42801e-05
4.30615e-05
4.20736e-05
4.12694e-05
4.06134e-05
4.00855e-05
3.69327e-05
4.20257e-05
4.57637e-05
4.86743e-05
5.1082e-05
5.30482e-05
5.46326e-05
5.58927e-05
5.68809e-05
5.76441e-05
5.82224e-05
5.86502e-05
5.89563e-05
5.91643e-05
5.92941e-05
5.93616e-05
5.93803e-05
5.93599e-05
9.24231e-06
2.37428e-05
2.68949e-05
3.13911e-05
3.64134e-05
4.09902e-05
4.52396e-05
4.92223e-05
5.29695e-05
5.64994e-05
5.98409e-05
6.3019e-05
6.60534e-05
6.89601e-05
7.17522e-05
7.44404e-05
7.70337e-05
7.95399e-05
8.19656e-05
8.43165e-05
8.65978e-05
8.88139e-05
9.09688e-05
9.3066e-05
9.51087e-05
9.70999e-05
9.90422e-05
0.000100938
0.00010279
0.000104599
0.000106369
0.0001081
0.000109795
0.000111455
0.000113083
0.000114678
0.000116243
0.00011778
0.000119289
0.000120772
0.000122231
0.000123666
0.000125079
0.00012647
0.000127842
0.000129195
0.00013053
0.000131848
0.00013315
0.000134438
0.000135711
0.000136971
0.000138218
0.000139453
0.000140676
0.000141888
0.000143088
0.000144278
0.000145456
0.000146624
0.000147779
0.000148924
0.000150055
0.000151175
0.000152281
0.000153374
0.000154455
0.000155523
0.000156581
0.000157678
0.000158737
0.00015975
0.000160711
0.00016161
0.000162438
0.000163187
0.000163845
0.000164399
0.000164838
0.000165147
0.000165314
0.000165325
0.000165167
0.000164827
0.000164294
0.000163561
0.000162622
0.000161474
0.00016012
0.000158563
0.000156813
0.000154883
0.000152788
0.000150546
0.000148176
0.0001457
0.000143137
0.000140508
0.000137832
0.000135129
0.000132413
0.000129699
0.000127
0.000124327
0.00012169
0.000119094
0.000116545
0.00011405
0.000111609
0.000109229
0.0001069
0.000104697
0.000102591
0.000100782
9.91683e-05
9.76359e-05
9.61649e-05
9.47485e-05
9.3383e-05
9.20662e-05
9.07967e-05
8.95726e-05
8.83908e-05
8.72475e-05
8.61407e-05
8.50696e-05
8.40326e-05
8.30276e-05
8.20528e-05
8.11073e-05
8.01899e-05
7.92989e-05
7.84327e-05
7.759e-05
7.67703e-05
7.59727e-05
7.51962e-05
7.44395e-05
7.37015e-05
7.29821e-05
7.22807e-05
7.15965e-05
7.09283e-05
7.02752e-05
6.96371e-05
6.90137e-05
6.84045e-05
6.78086e-05
6.72253e-05
6.66541e-05
6.6095e-05
6.55477e-05
6.50118e-05
6.44866e-05
6.39716e-05
6.34665e-05
6.29716e-05
6.24866e-05
6.20107e-05
6.1544e-05
6.10861e-05
6.06362e-05
6.01947e-05
5.97613e-05
5.93354e-05
5.89171e-05
5.85061e-05
5.81012e-05
5.77023e-05
5.73089e-05
5.69192e-05
5.65327e-05
5.61472e-05
5.57596e-05
5.53647e-05
5.49559e-05
5.45296e-05
5.40865e-05
5.35998e-05
5.29323e-05
1.40313e-05
8.15541e-05
0.000116908
0.000132819
0.000145312
0.000158568
0.00017271
0.000187352
0.000202273
0.000217385
0.00023266
0.000248087
0.000263661
0.000279373
0.000295214
0.000311169
0.000327222
0.000343355
0.000359548
0.000375778
0.000392025
0.000408268
0.000424483
0.000440652
0.000456753
0.00047277
0.000488686
0.000504484
0.000520153
0.00053568
0.000551055
0.000566272
0.000581324
0.000596207
0.000610919
0.000625461
0.000639834
0.000654042
0.00066809
0.000681986
0.000695739
0.00070936
0.000722863
0.000736262
0.000749575
0.000762821
0.000776018
0.000789191
0.000802363
0.00081556
0.000828808
0.000842136
0.000855574
0.000869152
0.000882901
0.000896852
0.000911037
0.000925485
0.000940225
0.000955281
0.000970676
0.000986425
0.00100254
0.00101901
0.00103584
0.001053
0.00107044
0.0010881
0.00110591
0.00112282
0.00113992
0.00115731
0.00117497
0.00119282
0.00121076
0.00122868
0.00124641
0.0012638
0.00128062
0.00129667
0.0013117
0.00132543
0.00133761
0.00134796
0.00135625
0.00136224
0.00136577
0.00136671
0.00136501
0.00136065
0.00135372
0.00134434
0.00133268
0.00131898
0.00130346
0.0012864
0.00126805
0.00124868
0.00122853
0.00120783
0.00118678
0.00116556
0.00114431
0.00112317
0.00110225
0.00108162
0.00106137
0.00104152
0.00102219
0.00100342
0.000984972
0.000966771
0.000948415
0.000929214
0.000909929
0.00089101
0.000872625
0.000854822
0.000837608
0.000820974
0.000804903
0.00078937
0.000774351
0.00075982
0.000745755
0.000732131
0.000718926
0.000706121
0.000693696
0.000681635
0.000669918
0.000658527
0.000647446
0.000636663
0.000626161
0.000615929
0.000605952
0.000596219
0.000586721
0.000577446
0.000568385
0.000559527
0.000550864
0.000542387
0.00053409
0.000525963
0.000518
0.000510194
0.000502538
0.000495027
0.000487655
0.000480417
0.000473307
0.000466319
0.00045945
0.000452696
0.000446053
0.000439517
0.000433082
0.000426745
0.000420503
0.000414353
0.00040829
0.000402313
0.000396417
0.000390599
0.000384855
0.00037918
0.000373568
0.000368016
0.000362515
0.000357056
0.000351627
0.00034621
0.000340779
0.00033528
0.000329359
0.000322452
0.000313381
0.000298219
1.80478e-05
0.000119317
0.000187129
0.000223818
0.000250041
0.000274526
0.000299761
0.000326115
0.00035348
0.000381708
0.000410688
0.000440338
0.000470588
0.000501375
0.000532638
0.000564317
0.000596352
0.000628683
0.000661253
0.000694003
0.00072688
0.00075983
0.000792805
0.000825756
0.000858642
0.000891421
0.000924058
0.000956518
0.000988773
0.0010208
0.00105257
0.00108406
0.00111527
0.00114617
0.00117677
0.00120704
0.001237
0.00126663
0.00129595
0.00132495
0.00135366
0.00138207
0.0014102
0.00143808
0.00146573
0.00149316
0.00152041
0.00154751
0.00157448
0.00160138
0.00162824
0.0016551
0.001682
0.001709
0.00173613
0.00176346
0.00179103
0.00181889
0.00184708
0.00187565
0.00190465
0.00193409
0.00196401
0.00199441
0.0020253
0.00205665
0.00208843
0.00212054
0.00215279
0.00218491
0.00221747
0.0022505
0.00228393
0.00231759
0.00235128
0.00238474
0.00241766
0.0024497
0.00248043
0.00250939
0.0025361
0.00256004
0.00258069
0.00259753
0.00261012
0.00261804
0.00262101
0.00261882
0.00261143
0.00259888
0.00258138
0.00255921
0.00253277
0.00250252
0.00246896
0.00243261
0.00239399
0.0023536
0.0023119
0.00226933
0.00222627
0.00218303
0.00213992
0.00209715
0.00205496
0.00201346
0.00197287
0.00193327
0.00189478
0.00185763
0.00182161
0.00178641
0.0017518
0.00171743
0.00168359
0.00165055
0.00161846
0.00158737
0.0015573
0.00152822
0.00150012
0.00147295
0.00144667
0.00142124
0.00139662
0.00137277
0.00134965
0.00132722
0.00130546
0.00128432
0.00126377
0.00124379
0.00122435
0.00120542
0.00118697
0.00116899
0.00115145
0.00113433
0.0011176
0.00110126
0.00108528
0.00106965
0.00105435
0.00103936
0.00102468
0.00101029
0.000996169
0.000982318
0.00096872
0.000955367
0.000942247
0.000929352
0.000916671
0.000904197
0.000891922
0.000879838
0.00086794
0.000856219
0.000844668
0.000833283
0.000822056
0.000810983
0.000800056
0.000789272
0.000778623
0.000768102
0.000757705
0.000747421
0.000737242
0.000727159
0.000717156
0.000707216
0.000697314
0.000687419
0.000677481
0.000667407
0.000656839
0.000644813
0.000629821
0.000608201
2.10629e-05
0.000147026
0.000244903
0.000302802
0.000343816
0.000379847
0.000415544
0.000452339
0.000490509
0.000529995
0.000570664
0.000612385
0.000655033
0.000698497
0.00074267
0.000787451
0.000832747
0.000878465
0.000924521
0.000970833
0.00101733
0.00106393
0.00111057
0.00115719
0.00120373
0.00125015
0.00129638
0.0013424
0.00138815
0.0014336
0.00147872
0.00152348
0.00156786
0.00161184
0.0016554
0.00169853
0.0017412
0.00178343
0.0018252
0.00186652
0.00190738
0.0019478
0.00198778
0.00202733
0.00206647
0.00210522
0.00214361
0.00218166
0.00221939
0.00225685
0.00229407
0.00233109
0.00236796
0.00240472
0.00244142
0.00247812
0.00251487
0.00255172
0.00258873
0.00262596
0.00266345
0.00270125
0.0027394
0.00277794
0.00281689
0.00285626
0.00289604
0.00293623
0.00297642
0.00301697
0.00305802
0.00309954
0.0031414
0.0031834
0.00322527
0.00326669
0.00330726
0.00334651
0.00338391
0.00341886
0.00345073
0.00347884
0.0035025
0.00352108
0.00353399
0.00354071
0.00354089
0.0035343
0.0035209
0.00350081
0.00347431
0.00344183
0.0034039
0.00336114
0.00331423
0.00326385
0.00321069
0.00315537
0.00309852
0.00304066
0.00298229
0.00292382
0.00286561
0.00280792
0.00275109
0.00269525
0.00264067
0.00258765
0.00253624
0.00248647
0.00243826
0.00239143
0.00234584
0.00230133
0.00225793
0.00221572
0.00217478
0.00213514
0.00209678
0.00205968
0.0020238
0.00198909
0.00195551
0.001923
0.00189151
0.00186099
0.0018314
0.00180269
0.00177481
0.00174772
0.00172139
0.00169577
0.00167083
0.00164654
0.00162286
0.00159977
0.00157723
0.00155522
0.00153372
0.0015127
0.00149213
0.00147201
0.0014523
0.00143299
0.00141406
0.0013955
0.00137729
0.00135941
0.00134185
0.00132459
0.00130763
0.00129095
0.00127455
0.0012584
0.0012425
0.00122685
0.00121142
0.00119622
0.00118124
0.00116646
0.00115189
0.00113751
0.00112331
0.0011093
0.00109546
0.00108178
0.00106826
0.00105489
0.00104166
0.00102856
0.00101557
0.00100267
0.000989844
0.000977056
0.000964263
0.000951384
0.000938195
0.000923706
0.000906853
0.000885677
2.32982e-05
0.000165948
0.000289832
0.000367941
0.00042369
0.000471091
0.000516516
0.000562456
0.00060971
0.000658431
0.000708547
0.000759927
0.000812425
0.000865901
0.000920225
0.000975272
0.00103093
0.00108708
0.00114364
0.0012005
0.00125758
0.00131479
0.00137207
0.00142933
0.00148651
0.00154356
0.00160041
0.00165701
0.00171332
0.00176928
0.00182487
0.00188003
0.00193475
0.00198898
0.00204271
0.0020959
0.00214854
0.00220062
0.00225212
0.00230302
0.00235332
0.00240302
0.00245212
0.00250062
0.00254852
0.00259583
0.00264256
0.00268874
0.00273438
0.0027795
0.00282413
0.0028683
0.00291205
0.00295541
0.00299843
0.00304116
0.00308365
0.00312595
0.00316812
0.00321021
0.0032523
0.00329444
0.00333668
0.00337908
0.00342169
0.00346454
0.00350767
0.00355109
0.00359463
0.0036386
0.00368307
0.00372802
0.00377332
0.00381878
0.00386414
0.00390906
0.00395311
0.00399579
0.0040365
0.00407456
0.00410922
0.0041397
0.00416519
0.00418489
0.0041981
0.00420419
0.0042027
0.00419337
0.0041761
0.00415105
0.00411855
0.00407911
0.00403338
0.0039821
0.00392605
0.00386605
0.00380291
0.00373737
0.00367011
0.00360178
0.00353293
0.003464
0.00339547
0.00332753
0.0032607
0.00319528
0.00313149
0.00306947
0.00300931
0.00295105
0.00289463
0.00283998
0.00278699
0.00273555
0.00268563
0.00263722
0.00259032
0.00254492
0.00250098
0.00245848
0.00241736
0.00237757
0.00233905
0.00230174
0.0022656
0.00223056
0.00219656
0.00216357
0.00213152
0.00210038
0.00207009
0.00204061
0.00201191
0.00198394
0.00195668
0.00193007
0.00190411
0.00187874
0.00185395
0.0018297
0.00180598
0.00178276
0.00176001
0.00173772
0.00171586
0.00169441
0.00167336
0.00165269
0.00163239
0.00161243
0.00159281
0.00157351
0.00155452
0.00153582
0.00151741
0.00149928
0.00148141
0.00146379
0.00144642
0.00142929
0.00141239
0.00139571
0.00137925
0.00136299
0.00134694
0.00133108
0.0013154
0.0012999
0.00128457
0.0012694
0.00125438
0.0012395
0.00122473
0.00121006
0.00119546
0.0011809
0.00116623
0.00115073
0.00113373
0.00111447
2.49572e-05
0.000177672
0.000322574
0.00041881
0.00048835
0.000546412
0.000600653
0.000654486
0.000709256
0.000765394
0.000822955
0.000881853
0.000941956
0.00100312
0.00106521
0.0011281
0.00119165
0.00125577
0.00132033
0.00138524
0.00145041
0.00151575
0.00158118
0.00164663
0.00171201
0.00177726
0.00184233
0.00190714
0.00197164
0.00203578
0.00209951
0.00216278
0.00222555
0.00228777
0.00234942
0.00241046
0.00247085
0.00253057
0.0025896
0.0026479
0.00270547
0.00276229
0.00281834
0.00287362
0.00292811
0.00298181
0.00303472
0.00308685
0.00313819
0.00318876
0.00323858
0.00328765
0.00333601
0.00338367
0.00343068
0.00347707
0.00352289
0.00356817
0.00361299
0.0036574
0.00370147
0.00374526
0.00378885
0.00383232
0.00387575
0.00391919
0.00396271
0.00400638
0.00405023
0.00409453
0.00413941
0.00418487
0.00423086
0.00427725
0.00432382
0.00437028
0.00441623
0.00446116
0.00450444
0.00454534
0.00458303
0.00461658
0.00464503
0.00466742
0.00468283
0.00469049
0.00468977
0.00468028
0.00466187
0.00463466
0.004599
0.00455547
0.00450481
0.00444786
0.00438556
0.00431881
0.00424854
0.0041756
0.00410076
0.00402476
0.00394821
0.00387149
0.00379541
0.0037203
0.00364653
0.00357439
0.00350407
0.00343571
0.00336939
0.00330514
0.00324293
0.00318273
0.00312446
0.00306803
0.00301338
0.00296046
0.00290923
0.00285965
0.00281168
0.00276526
0.00272034
0.00267686
0.00263476
0.00259397
0.00255444
0.00251611
0.00247891
0.0024428
0.00240771
0.0023736
0.00234043
0.00230814
0.00227668
0.00224603
0.00221614
0.00218697
0.00215849
0.00213067
0.00210347
0.00207687
0.00205084
0.00202535
0.00200037
0.00197589
0.00195189
0.00192833
0.00190521
0.0018825
0.00186018
0.00183825
0.00181668
0.00179546
0.00177457
0.00175401
0.00173376
0.00171381
0.00169415
0.00167477
0.00165566
0.0016368
0.0016182
0.00159985
0.00158173
0.00156383
0.00154617
0.00152871
0.00151147
0.00149443
0.00147759
0.00146093
0.00144446
0.00142817
0.00141206
0.00139611
0.00138033
0.00136471
0.00134919
0.00133331
0.00131665
0.00129906
2.61502e-05
0.000183565
0.00034427
0.000455949
0.000537785
0.00060542
0.000667399
0.000727885
0.000788737
0.000850686
0.000913949
0.000978524
0.00104432
0.00111121
0.00117906
0.00124775
0.00131716
0.00138717
0.00145769
0.0015286
0.00159982
0.00167126
0.00174283
0.00181446
0.00188606
0.00195756
0.00202889
0.00209999
0.00217079
0.00224122
0.00231123
0.00238076
0.00244977
0.00251818
0.00258597
0.00265308
0.00271948
0.00278511
0.00284996
0.00291397
0.00297712
0.00303938
0.00310073
0.00316114
0.00322059
0.00327906
0.00333653
0.003393
0.00344845
0.00350289
0.0035563
0.0036087
0.00366008
0.00371047
0.00375988
0.00380834
0.00385588
0.00390254
0.00394838
0.00399345
0.00403783
0.00408158
0.0041248
0.00416758
0.00421003
0.00425224
0.00429434
0.00433642
0.00437869
0.00442147
0.00446494
0.00450923
0.00455437
0.00460035
0.00464707
0.0046943
0.00474174
0.00478891
0.0048352
0.00487984
0.00492189
0.00496028
0.00499386
0.0050214
0.00504174
0.00505382
0.00505677
0.00505
0.00503324
0.00500652
0.00497022
0.00492496
0.00487157
0.00481103
0.00474441
0.00467275
0.0045971
0.00451849
0.00443766
0.00435557
0.00427307
0.0041907
0.00410909
0.00402863
0.00394967
0.00387249
0.00379728
0.00372415
0.0036532
0.00358444
0.00351788
0.00345349
0.00339119
0.00333092
0.0032726
0.00321616
0.00316155
0.00310872
0.00305759
0.00300812
0.00296023
0.00291387
0.00286896
0.00282545
0.00278327
0.00274236
0.00270265
0.00266409
0.00262663
0.0025902
0.00255476
0.00252026
0.00248666
0.0024539
0.00242196
0.00239079
0.00236035
0.0023306
0.00230153
0.00227309
0.00224526
0.002218
0.00219129
0.00216512
0.00213944
0.00211425
0.00208952
0.00206522
0.00204135
0.00201789
0.00199481
0.00197211
0.00194977
0.00192777
0.0019061
0.00188475
0.00186371
0.00184297
0.00182251
0.00180234
0.00178243
0.00176279
0.0017434
0.00172425
0.00170535
0.00168668
0.00166824
0.00165003
0.00163204
0.00161427
0.00159672
0.00157939
0.00156228
0.00154541
0.0015288
0.00151248
0.00149643
0.0014804
0.00146408
0.00144758
2.6959e-05
0.000184779
0.000356248
0.000480415
0.000572767
0.000648678
0.000717222
0.000783145
0.000848754
0.000915078
0.000982517
0.00105117
0.00112101
0.00119193
0.00126384
0.00133662
0.00141016
0.00148435
0.00155909
0.00163429
0.00170985
0.00178569
0.00186172
0.00193786
0.00201402
0.00209014
0.00216613
0.00224192
0.00231744
0.00239261
0.00246738
0.00254166
0.00261541
0.00268855
0.00276104
0.0028328
0.0029038
0.00297398
0.00304328
0.00311167
0.00317909
0.00324551
0.00331089
0.00337518
0.00343836
0.0035004
0.00356125
0.0036209
0.00367932
0.00373649
0.00379239
0.00384701
0.00390035
0.00395239
0.00400315
0.00405264
0.00410087
0.00414787
0.00419369
0.00423838
0.004282
0.00432464
0.00436639
0.00440735
0.00444767
0.00448747
0.00452691
0.00456615
0.00460554
0.00464547
0.00468624
0.00472811
0.00477127
0.00481586
0.00486193
0.00490943
0.00495818
0.00500782
0.0050578
0.00510733
0.0051554
0.00520078
0.00524202
0.00527761
0.00530597
0.00532568
0.00533549
0.00533451
0.00532226
0.00529865
0.00526405
0.00521913
0.00516484
0.00510232
0.00503284
0.00495754
0.00487766
0.00479458
0.00470927
0.00462272
0.00453576
0.00444904
0.00436315
0.00427851
0.00419548
0.00411432
0.00403523
0.00395832
0.00388368
0.00381135
0.00374131
0.00367355
0.003608
0.00354459
0.00348326
0.00342394
0.00336654
0.00331101
0.00325727
0.00320526
0.00315491
0.00310616
0.00305892
0.00301315
0.00296876
0.0029257
0.0028839
0.00284331
0.00280386
0.0027655
0.00272818
0.00269185
0.00265646
0.00262196
0.00258831
0.00255548
0.00252342
0.00249209
0.00246147
0.00243152
0.0024022
0.0023735
0.00234537
0.0023178
0.00229077
0.00226424
0.0022382
0.00221262
0.00218749
0.00216278
0.00213849
0.00211459
0.00209107
0.00206791
0.0020451
0.00202263
0.00200049
0.00197866
0.00195713
0.0019359
0.00191495
0.00189428
0.00187388
0.00185374
0.00183386
0.00181423
0.00179485
0.00177571
0.00175682
0.00173818
0.00171978
0.00170164
0.00168378
0.00166622
0.00164899
0.00163214
0.00161571
0.0015996
0.00158347
0.00156754
2.74453e-05
0.000182307
0.000359899
0.000493537
0.000594513
0.000677332
0.000751257
0.000821453
0.000890602
0.000960016
0.00103028
0.00110161
0.00117405
0.00124756
0.00132205
0.00139744
0.00147362
0.0015505
0.00162798
0.00170599
0.00178442
0.0018632
0.00194223
0.00202145
0.00210076
0.00218008
0.00225934
0.00233845
0.00241734
0.00249593
0.00257414
0.00265189
0.00272912
0.00280576
0.00288173
0.00295696
0.0030314
0.00310498
0.00317764
0.00324933
0.00331997
0.00338953
0.00345794
0.00352516
0.00359113
0.00365582
0.00371917
0.00378114
0.0038417
0.0039008
0.00395841
0.00401451
0.00406906
0.00412204
0.00417345
0.00422328
0.00427152
0.00431819
0.00436332
0.00440695
0.00444913
0.00448994
0.00452947
0.00456783
0.00460518
0.00464168
0.00467751
0.00471289
0.00474828
0.00478417
0.00482099
0.00485918
0.0048991
0.00494111
0.00498549
0.00503243
0.00508197
0.00513396
0.00518798
0.00524334
0.00529897
0.00535345
0.00540506
0.00545183
0.00549167
0.00552258
0.0055428
0.00555099
0.00554634
0.00552859
0.00549805
0.00545553
0.00540204
0.00533893
0.00526789
0.0051904
0.00510791
0.00502181
0.0049333
0.00484342
0.00475305
0.00466292
0.00457362
0.00448562
0.00439928
0.00431487
0.00423259
0.00415258
0.0040749
0.0039996
0.00392667
0.00385609
0.00378781
0.00372176
0.00365788
0.00359608
0.00353629
0.00347843
0.00342244
0.00336825
0.00331577
0.00326494
0.00321569
0.00316794
0.00312164
0.00307671
0.0030331
0.00299074
0.00294957
0.00290953
0.00287058
0.00283265
0.00279571
0.00275971
0.00272459
0.00269033
0.00265687
0.00262418
0.00259223
0.00256098
0.0025304
0.00250047
0.00247114
0.00244239
0.0024142
0.00238655
0.0023594
0.00233275
0.00230656
0.00228082
0.00225551
0.00223061
0.00220612
0.002182
0.00215825
0.00213486
0.0021118
0.00208908
0.00206668
0.00204458
0.00202279
0.00200128
0.00198006
0.00195912
0.00193844
0.00191804
0.0018979
0.00187802
0.00185841
0.00183906
0.00182
0.00180122
0.00178277
0.00176466
0.00174694
0.00172968
0.00171294
0.00169669
0.00168061
0.00166492
2.76553e-05
0.000177014
0.000356604
0.00049677
0.000604475
0.000692853
0.000771034
0.00084443
0.000916026
0.000987389
0.00105929
0.00113207
0.00120586
0.00128066
0.00135644
0.00143312
0.00151063
0.00158889
0.00166781
0.00174731
0.00182731
0.00190773
0.00198849
0.0020695
0.00215069
0.00223197
0.00231325
0.00239446
0.00247551
0.00255632
0.00263681
0.00271689
0.00279649
0.00287552
0.00295391
0.00303157
0.00310845
0.00318446
0.00325952
0.00333358
0.00340656
0.0034784
0.00354903
0.00361838
0.0036864
0.00375301
0.00381817
0.00388181
0.00394388
0.00400432
0.00406309
0.00412012
0.00417537
0.00422881
0.0042804
0.00433012
0.00437793
0.00442384
0.00446784
0.00450996
0.00455023
0.00458871
0.00462548
0.00466065
0.00469436
0.00472679
0.00475816
0.00478871
0.00481896
0.00484952
0.00488098
0.00491392
0.00494897
0.00498672
0.00502776
0.00507261
0.00512166
0.00517511
0.00523284
0.00529435
0.00535864
0.00542418
0.00548888
0.00555021
0.0056054
0.00565165
0.0056864
0.00570764
0.00571413
0.00570529
0.0056814
0.00564349
0.00559292
0.00553135
0.00546064
0.00538255
0.00529878
0.00521087
0.00512018
0.00502787
0.00493491
0.0048421
0.00475008
0.00465935
0.0045703
0.00448321
0.00439829
0.00431568
0.00423545
0.00415764
0.00408226
0.00400928
0.00393866
0.00387033
0.00380423
0.00374027
0.00367838
0.00361849
0.00356051
0.00350438
0.00345002
0.00339735
0.0033463
0.0032968
0.0032488
0.00320221
0.00315697
0.00311303
0.00307033
0.0030288
0.00298839
0.00294905
0.00291073
0.00287338
0.00283697
0.00280143
0.00276674
0.00273286
0.00269974
0.00266736
0.00263567
0.00260466
0.00257428
0.00254451
0.00251533
0.00248671
0.00245862
0.00243104
0.00240395
0.00237733
0.00235117
0.00232543
0.00230012
0.0022752
0.00225067
0.0022265
0.0022027
0.00217924
0.00215611
0.00213331
0.00211082
0.00208863
0.00206674
0.00204515
0.00202383
0.0020028
0.00198205
0.00196158
0.00194139
0.00192149
0.00190189
0.00188261
0.00186368
0.00184514
0.00182703
0.00180944
0.00179241
0.00177597
0.00175986
0.00174419
2.7624e-05
0.000169642
0.000347681
0.000491587
0.000604191
0.000696861
0.000778282
0.000853938
0.000927037
0.000999363
0.00107187
0.00114502
0.00121905
0.00129402
0.00136993
0.00144675
0.00152441
0.00160287
0.00168203
0.00176184
0.00184222
0.0019231
0.00200439
0.00208602
0.0021679
0.00224997
0.00233213
0.0024143
0.00249639
0.00257831
0.00265999
0.00274133
0.00282225
0.00290266
0.00298248
0.00306162
0.00314
0.00321754
0.00329415
0.00336976
0.00344428
0.00351764
0.00358976
0.00366056
0.00372997
0.00379791
0.00386431
0.00392908
0.00399217
0.00405348
0.00411296
0.00417054
0.00422613
0.00427969
0.00433115
0.00438046
0.00442756
0.00447243
0.00451504
0.00455536
0.00459342
0.00462923
0.00466285
0.00469435
0.00472387
0.00475157
0.00477765
0.00480237
0.0048263
0.00485012
0.00487454
0.00490035
0.00492837
0.00495953
0.00499479
0.00503509
0.00508135
0.00513428
0.00519429
0.00526134
0.0053347
0.00541281
0.00549324
0.00557281
0.00564778
0.00571423
0.00576843
0.00580736
0.00582922
0.00583321
0.00581957
0.00578941
0.00574439
0.00568649
0.00561788
0.00554066
0.00545681
0.00536812
0.00527614
0.00518219
0.00508735
0.0049925
0.00489835
0.00480545
0.0047142
0.00462492
0.00453781
0.00445303
0.00437065
0.00429073
0.00421326
0.00413823
0.00406559
0.00399528
0.00392724
0.00386139
0.00379765
0.00373595
0.0036762
0.00361834
0.00356229
0.00350796
0.0034553
0.00340423
0.00335468
0.00330659
0.00325989
0.00321452
0.00317043
0.00312754
0.00308582
0.0030452
0.00300564
0.00296709
0.0029295
0.00289283
0.00285704
0.00282208
0.00278793
0.00275454
0.00272188
0.00268991
0.00265862
0.00262796
0.00259791
0.00256845
0.00253954
0.00251117
0.00248332
0.00245595
0.00242906
0.00240262
0.00237661
0.00235103
0.00232584
0.00230104
0.00227662
0.00225256
0.00222884
0.00220546
0.00218241
0.00215968
0.00213726
0.00211514
0.00209332
0.00207179
0.00205056
0.00202962
0.00200898
0.00198864
0.00196863
0.00194896
0.00192967
0.00191078
0.00189237
0.0018745
0.00185723
0.00184058
0.00182437
0.0018086
2.73766e-05
0.000160769
0.000334229
0.000479311
0.000595118
0.000690954
0.000774764
0.000851922
0.000925761
0.000998247
0.0010705
0.00114312
0.00121642
0.00129055
0.00136557
0.00144147
0.00151821
0.00159577
0.00167408
0.00175308
0.00183271
0.00191291
0.00199361
0.00207472
0.00215618
0.00223791
0.00231982
0.00240184
0.00248388
0.00256585
0.00264766
0.00272923
0.00281046
0.00289126
0.00297155
0.00305123
0.00313022
0.00320842
0.00328575
0.00336211
0.00343742
0.00351159
0.00358453
0.00365614
0.00372635
0.00379506
0.00386218
0.00392762
0.00399128
0.00405309
0.00411293
0.00417074
0.0042264
0.00427983
0.00433095
0.00437967
0.00442591
0.00446959
0.00451065
0.00454904
0.00458472
0.00461767