/*--------------------------------*- C++ -*----------------------------------*\
| =========                 |                                                 |
| \\      /  F ield         | OpenFOAM: The Open Source CFD Toolbox           |
|  \\    /   O peration     | Version:  2.2.x                                 |
|   \\  /    A nd           | Web:      www.OpenFOAM.org                      |
|    \\/     M anipulation  |                                                 |
\*---------------------------------------------------------------------------*/
FoamFile
{
    version     2.0;
    format      ascii;
    class       volScalarField;
    location    "200";
    object      p;
}
// * * * * * * * * * * * * * * * * * * * * * * * * * * * * * * * * * * * * * //

dimensions      [0 2 -2 0 0 0 0];

internalField   nonuniform List<scalar> 
12225
(
-1.3691
-4.07158
-4.91388
-5.14509
-5.298
-5.42529
-5.52218
-5.59646
-5.65623
-5.70532
-5.74512
-5.77617
-5.79847
-5.81148
-5.81376
-5.80181
-5.76794
-5.62225
-5.15764
-5.51024
-5.61566
-5.56196
-5.55777
-5.59277
-5.63424
-5.6737
-5.7107
-5.74446
-5.77372
-5.79739
-5.81451
-5.82392
-5.82399
-5.81237
-5.7898
-5.79718
-5.00496
-4.84775
-5.04417
-5.17061
-5.28298
-5.39488
-5.4907
-5.56876
-5.6332
-5.68675
-5.73053
-5.76511
-5.79067
-5.807
-5.81351
-5.80972
-5.79835
-5.79875
-4.92086
-4.90757
-5.17473
-5.33484
-5.43573
-5.52317
-5.59603
-5.6546
-5.70288
-5.74336
-5.77679
-5.80335
-5.82294
-5.83524
-5.8399
-5.83713
-5.82958
-5.8283
-4.95786
-5.00474
-5.21164
-5.34013
-5.42207
-5.49785
-5.56638
-5.62504
-5.67545
-5.71894
-5.7558
-5.786
-5.80945
-5.82601
-5.8357
-5.83916
-5.83842
-5.83869
-5.03295
-5.08129
-5.23638
-5.35194
-5.43422
-5.50999
-5.57892
-5.63839
-5.68941
-5.73325
-5.7704
-5.80105
-5.82533
-5.84338
-5.85553
-5.86258
-5.86609
-5.8688
-5.09989
-5.1399
-5.26166
-5.36769
-5.44859
-5.52145
-5.58763
-5.64541
-5.69548
-5.7389
-5.77619
-5.80759
-5.83333
-5.85369
-5.86914
-5.88045
-5.88881
-5.89563
-5.15293
-5.18776
-5.28915
-5.38563
-5.4632
-5.53301
-5.59685
-5.65344
-5.70313
-5.74671
-5.78462
-5.81715
-5.84456
-5.86723
-5.88569
-5.90069
-5.91324
-5.92431
-5.19834
-5.22955
-5.31541
-5.40293
-5.47688
-5.54394
-5.60574
-5.66128
-5.71063
-5.75436
-5.79287
-5.82646
-5.85544
-5.88023
-5.90139
-5.91966
-5.93592
-5.95092
-5.24614
-5.27371
-5.3453
-5.42347
-5.49316
-5.55721
-5.6168
-5.67116
-5.72013
-5.76407
-5.80333
-5.83821
-5.86906
-5.89631
-5.92052
-5.94241
-5.96277
-5.98219
-5.29573
-5.31957
-5.37877
-5.44763
-5.51247
-5.57321
-5.63043
-5.68348
-5.73205
-5.7763
-5.81649
-5.85291
-5.88591
-5.91593
-5.94352
-5.96933
-5.99409
-6.01825
-5.34637
-5.36663
-5.41546
-5.47547
-5.53503
-5.59226
-5.64704
-5.69874
-5.74693
-5.79159
-5.83291
-5.87112
-5.90655
-5.93963
-5.97087
-6.00084
-6.03017
-6.05924
-5.39721
-5.41426
-5.45465
-5.50664
-5.56087
-5.61454
-5.66692
-5.71732
-5.76521
-5.81044
-5.85308
-5.89332
-5.93144
-5.96781
-6.00287
-6.03713
-6.0711
-6.10504
-5.4472
-5.46153
-5.49529
-5.54043
-5.58966
-5.63994
-5.69012
-5.73939
-5.78716
-5.83315
-5.87733
-5.91981
-5.96081
-6.00062
-6.0396
-6.07814
-6.11664
-6.15524
-5.49489
-5.50708
-5.53587
-5.57557
-5.62054
-5.6679
-5.71629
-5.76477
-5.8127
-5.8597
-5.90565
-5.95056
-5.99456
-6.03785
-6.08069
-6.12337
-6.16614
-6.20902
-5.53824
-5.54892
-5.57429
-5.61011
-5.65194
-5.69718
-5.74442
-5.79264
-5.84115
-5.8895
-5.93745
-5.98494
-6.03199
-6.0787
-6.12523
-6.17172
-6.21834
-6.26498
-5.57417
-5.58397
-5.6074
-5.64107
-5.68122
-5.72553
-5.77258
-5.82133
-5.87102
-5.92115
-5.97141
-6.02162
-6.07173
-6.12172
-6.17165
-6.22156
-6.27151
-6.3213
-5.59615
-5.60577
-5.62887
-5.66234
-5.70266
-5.74759
-5.79569
-5.84593
-5.89749
-5.94983
-6.00257
-6.05547
-6.10839
-6.16124
-6.214
-6.26663
-6.31912
-6.3712
-5.60105
-5.61104
-5.63518
-5.67022
-5.71242
-5.75937
-5.8096
-5.86208
-5.91599
-5.97075
-6.02595
-6.08132
-6.13666
-6.19186
-6.24685
-6.30156
-6.35592
-6.40964
-5.59211
-5.6028
-5.62895
-5.66696
-5.71232
-5.76226
-5.81531
-5.87046
-5.92692
-5.98409
-6.04156
-6.09906
-6.15639
-6.21341
-6.27005
-6.32621
-6.38183
-6.43654
-5.57277
-5.58422
-5.61326
-5.65561
-5.70525
-5.75888
-5.81521
-5.87334
-5.93249
-5.99208
-6.05175
-6.11125
-6.17039
-6.22904
-6.28711
-6.34453
-6.40121
-6.45682
-5.5457
-5.55747
-5.59037
-5.63866
-5.69347
-5.75114
-5.81092
-5.87209
-5.93385
-5.99568
-6.05729
-6.11847
-6.17908
-6.23899
-6.29811
-6.35636
-6.41365
-6.46957
-5.51332
-5.52392
-5.5621
-5.61852
-5.67935
-5.74129
-5.80473
-5.86909
-5.93354
-5.99766
-6.06126
-6.12419
-6.18633
-6.24755
-6.30778
-6.36694
-6.42498
-6.48153
-5.47786
-5.48417
-5.52963
-5.59611
-5.66286
-5.72878
-5.79566
-5.86273
-5.92917
-5.99484
-6.05974
-6.12378
-6.18686
-6.24889
-6.30978
-6.36942
-6.42767
-6.48396
-5.44086
-5.43881
-5.49841
-5.57716
-5.64865
-5.71875
-5.79023
-5.86116
-5.93057
-5.99859
-6.06538
-6.13093
-6.19521
-6.25817
-6.31976
-6.37991
-6.43853
-6.49523
-5.39992
-5.37238
-5.46207
-5.55655
-5.62726
-5.69583
-5.76711
-5.83812
-5.90792
-5.97677
-6.04472
-6.11166
-6.17743
-6.24195
-6.30509
-6.36669
-6.42642
-6.48322
-5.39519
-5.28214
-5.42596
-5.56276
-5.65383
-5.73455
-5.81169
-5.88388
-5.95241
-6.01886
-6.08393
-6.14781
-6.2106
-6.27232
-6.33296
-6.39239
-6.45037
-6.50619
-5.49329
-5.16385
-5.24365
-5.35198
-5.45132
-5.5569
-5.65954
-5.75434
-5.84261
-5.92611
-6.00567
-6.08181
-6.15494
-6.22544
-6.29358
-6.35953
-6.42314
-6.48331
-5.79244
-5.85926
-5.89596
-5.82875
-5.80325
-5.82518
-5.86592
-5.91402
-5.96731
-6.02447
-6.084
-6.14473
-6.20594
-6.26718
-6.32818
-6.38884
-6.4491
-6.50975
-2.0982
-4.29382
-5.09578
-5.32186
-5.46433
-5.5934
-5.70268
-5.79613
-5.88067
-5.95996
-6.03544
-6.10786
-6.17776
-6.24554
-6.31157
-6.37626
-6.4402
-6.50787
-6.38533
-6.39001
-6.39544
-6.40444
-6.42083
-6.44682
-6.48354
-6.5317
-6.59173
-6.66385
-6.74809
-6.84426
-6.95204
-7.07094
-7.2004
-7.33975
-7.48829
-7.64526
-7.80991
-7.98146
-8.15916
-8.34227
-8.53008
-8.72193
-8.91717
-9.1152
-9.31546
-9.51743
-9.72062
-9.92457
-10.1289
-10.3331
-10.5368
-10.7398
-10.9416
-11.1418
-11.3403
-11.5366
-11.7305
-11.9215
-12.1094
-12.2938
-12.4742
-12.6504
-12.8218
-12.988
-13.1485
-13.3027
-13.4501
-13.59
-13.7216
-13.8443
-13.9572
-14.0594
-14.1498
-14.2274
-14.291
-14.3394
-14.3711
-14.3846
-14.3785
-14.3509
-14.2999
-14.2234
-14.1195
-13.986
-13.8209
-13.6214
-13.3842
-13.1061
-12.7845
-12.4169
-12.0009
-11.5345
-11.0157
-10.4434
-9.81665
-9.13558
-8.40103
-7.61491
-6.78023
-5.90119
-4.98322
-4.03285
-3.05764
-2.06595
-1.06664
-0.0687656
0.918775
1.88758
2.83002
3.73951
4.61062
5.43917
6.22222
6.95802
7.64589
8.28608
8.87961
9.42809
9.93361
10.3986
10.8255
11.2172
11.5762
11.9053
12.207
12.4835
12.7373
12.9706
13.185
13.3813
13.5645
13.7361
13.8935
14.0378
14.1705
14.293
14.4062
14.5111
14.6084
14.699
14.7834
14.8621
14.9356
15.0045
15.069
15.1296
15.1866
15.2402
15.2908
15.3385
15.3836
15.4263
15.4668
15.5053
15.5418
15.5765
15.6096
15.6411
15.6712
15.7
15.7275
15.7538
15.779
15.8031
15.8263
15.8484
15.8697
15.8901
15.9097
15.9284
15.9464
15.9636
15.98
15.9957
16.0106
16.0249
16.0384
16.0511
16.0632
16.0746
16.0852
16.0951
16.1042
16.1127
16.1205
16.1276
16.1341
16.1402
16.1459
16.1515
16.1574
16.1641
16.1724
16.1838
16.2007
16.2276
16.2776
16.3587
-6.34968
-6.36501
-6.37807
-6.38249
-6.39104
-6.41008
-6.44098
-6.48417
-6.5399
-6.60828
-6.68924
-6.78254
-6.88778
-7.00441
-7.13183
-7.26932
-7.41616
-7.57156
-7.73475
-7.90493
-8.08134
-8.26324
-8.44992
-8.6407
-8.83494
-9.03204
-9.23145
-9.43264
-9.63513
-9.83845
-10.0422
-10.246
-10.4494
-10.652
-10.8537
-11.0539
-11.2524
-11.4489
-11.6431
-11.8345
-12.023
-12.2081
-12.3894
-12.5666
-12.7392
-12.9068
-13.069
-13.225
-13.3745
-13.5168
-13.6511
-13.7767
-13.8928
-13.9986
-14.093
-14.1751
-14.2436
-14.2973
-14.3349
-14.355
-14.356
-14.3362
-14.2938
-14.2268
-14.1333
-14.0115
-13.8592
-13.6734
-13.4505
-13.1877
-12.8826
-12.5327
-12.1357
-11.6894
-11.1918
-10.6416
-10.0377
-9.37985
-8.66869
-7.90567
-7.09337
-6.23548
-5.33692
-4.40372
-3.443
-2.4627
-1.47143
-0.47807
0.508508
1.4798
2.42798
3.34612
4.22844
5.07031
5.86838
6.62046
7.32545
7.98324
8.59453
9.16066
9.68349
10.1652
10.6084
11.0154
11.3891
11.7319
12.0464
12.335
12.6
12.8445
13.0705
13.2778
13.4686
13.6445
13.8061
13.9548
14.0919
14.2186
14.3359
14.4446
14.5457
14.6397
14.7273
14.8091
14.8855
14.9571
15.0242
15.0872
15.1464
15.2021
15.2546
15.3042
15.3511
15.3955
15.4375
15.4774
15.5153
15.5513
15.5856
15.6183
15.6494
15.6792
15.7076
15.7348
15.7609
15.7858
15.8097
15.8325
15.8545
15.8755
15.8957
15.915
15.9334
15.9511
15.968
15.9842
15.9996
16.0142
16.0281
16.0412
16.0536
16.0653
16.0762
16.0863
16.0958
16.1045
16.1125
16.1199
16.1267
16.133
16.1389
16.1448
16.1509
16.1579
16.1665
16.1782
16.1954
16.2221
16.2698
16.331
-6.28806
-6.31685
-6.34581
-6.36418
-6.38327
-6.41003
-6.44655
-6.49371
-6.55207
-6.62193
-6.7034
-6.79634
-6.90048
-7.01538
-7.14051
-7.27525
-7.41894
-7.57089
-7.73037
-7.89667
-8.06908
-8.24691
-8.4295
-8.6162
-8.80643
-8.99962
-9.19522
-9.39275
-9.59174
-9.79175
-9.99236
-10.1932
-10.3939
-10.5941
-10.7935
-10.9917
-11.1884
-11.3834
-11.5763
-11.7667
-11.9544
-12.139
-12.3201
-12.4974
-12.6704
-12.8387
-13.0018
-13.1592
-13.3104
-13.4546
-13.5914
-13.7199
-13.8393
-13.9488
-14.0474
-14.1342
-14.2081
-14.2677
-14.3119
-14.3393
-14.3484
-14.3375
-14.3049
-14.2486
-14.167
-14.0584
-13.9204
-13.7497
-13.543
-13.2978
-13.0115
-12.6818
-12.3061
-11.8822
-11.4081
-10.8821
-10.303
-9.67027
-8.98403
-8.24532
-7.45622
-6.61994
-5.74085
-4.82454
-3.87769
-2.90796
-1.92373
-0.933852
0.0527657
1.02744
1.98208
2.90941
3.80326
4.6586
5.47163
6.2398
6.96164
7.63668
8.26536
8.84875
9.38849
9.88665
10.3455
10.7675
11.1552
11.5114
11.8383
12.1395
12.4172
12.6729
12.9084
13.1249
13.3253
13.5109
13.682
13.8395
13.9848
14.119
14.2431
14.3582
14.465
14.5642
14.6567
14.7429
14.8234
14.8988
14.9693
15.0355
15.0977
15.1562
15.2113
15.2633
15.3124
15.3588
15.4028
15.4445
15.484
15.5216
15.5574
15.5914
15.6239
15.6548
15.6844
15.7127
15.7397
15.7656
15.7903
15.814
15.8368
15.8585
15.8794
15.8993
15.9184
15.9367
15.9541
15.9708
15.9866
16.0017
16.016
16.0296
16.0424
16.0544
16.0657
16.0762
16.0859
16.0949
16.1032
16.1108
16.1179
16.1244
16.1305
16.1366
16.1429
16.15
16.1586
16.1701
16.1865
16.2104
16.2512
16.2875
-6.23975
-6.28203
-6.32892
-6.36283
-6.39393
-6.43037
-6.47494
-6.52871
-6.5923
-6.66608
-6.75024
-6.84473
-6.94937
-7.06386
-7.18777
-7.3206
-7.46178
-7.61072
-7.7668
-7.92937
-8.09782
-8.27152
-8.44987
-8.6323
-8.81825
-9.0072
-9.19865
-9.39215
-9.58724
-9.78353
-9.98061
-10.1781
-10.3757
-10.5731
-10.7699
-10.9657
-11.1605
-11.3537
-11.5451
-11.7343
-11.9212
-12.1052
-12.2862
-12.4636
-12.6371
-12.8063
-12.9706
-13.1297
-13.2829
-13.4297
-13.5694
-13.7013
-13.8246
-13.9386
-14.0422
-14.1346
-14.2146
-14.2811
-14.3328
-14.3685
-14.3866
-14.3855
-14.3636
-14.3189
-14.2499
-14.1549
-14.0315
-13.876
-13.6853
-13.4572
-13.1889
-12.8779
-12.5217
-12.1179
-11.6641
-11.1586
-10.5996
-9.98632
-9.3184
-8.59645
-7.82208
-6.99806
-6.12843
-5.21851
-4.27486
-3.30511
-2.31782
-1.32208
-0.327152
0.657886
1.6245
2.56501
3.47287
4.34273
5.17048
5.95336
6.68972
7.37893
8.02137
8.61798
9.1703
9.68041
10.1504
10.5832
10.9812
11.3482
11.6867
11.998
12.2845
12.5483
12.7913
13.0152
13.2222
13.4139
13.5907
13.7538
13.9044
14.0435
14.1722
14.2915
14.4023
14.5053
14.6011
14.6905
14.774
14.8521
14.9252
14.9937
15.0581
15.1187
15.1757
15.2295
15.2803
15.3283
15.3737
15.4168
15.4576
15.4965
15.5334
15.5685
15.602
15.6339
15.6644
15.6935
15.7213
15.7479
15.7734
15.7978
15.8211
15.8435
15.8649
15.8854
15.905
15.9238
15.9417
15.9588
15.975
15.9905
16.0052
16.0191
16.0322
16.0445
16.0561
16.0669
16.0769
16.0861
16.0946
16.1024
16.1096
16.1163
16.1225
16.1286
16.1348
16.1417
16.1498
16.1603
16.1747
16.1941
16.2254
16.2392
-6.24032
-6.29018
-6.34814
-6.39327
-6.43393
-6.47867
-6.53064
-6.59096
-6.66018
-6.73861
-6.82637
-6.92342
-7.02961
-7.14468
-7.26827
-7.39998
-7.53933
-7.68582
-7.83892
-7.99808
-8.16277
-8.33244
-8.50657
-8.68464
-8.86617
-9.05068
-9.23773
-9.42689
-9.61776
-9.80997
-10.0032
-10.197
-10.3911
-10.5852
-10.7791
-10.9723
-11.1646
-11.3557
-11.5454
-11.7333
-11.919
-12.1023
-12.2829
-12.4604
-12.6343
-12.8042
-12.9698
-13.1305
-13.2858
-13.4352
-13.5779
-13.7133
-13.8407
-13.9592
-14.068
-14.1662
-14.2525
-14.3261
-14.3855
-14.4295
-14.4568
-14.4656
-14.4543
-14.4213
-14.3647
-14.2831
-14.1737
-14.033
-13.858
-13.6462
-13.395
-13.1016
-12.7635
-12.3778
-11.9422
-11.4543
-10.9123
-10.3146
-9.66054
-8.95021
-8.18476
-7.36658
-6.49942
-5.58847
-4.64034
-3.66291
-2.66511
-1.65656
-0.647129
0.353528
1.33629
2.29299
3.21671
4.10181
4.94396
5.74035
6.48927
7.18997
7.84304
8.44946
9.01075
9.52947
10.0076
10.4498
10.8579
11.2333
11.5789
11.8967
12.1893
12.4587
12.7069
12.9357
13.147
13.3424
13.5228
13.6894
13.8433
13.9857
14.1175
14.2397
14.3533
14.4588
14.5572
14.6489
14.7345
14.8146
14.8896
14.96
15.026
15.0882
15.1467
15.2018
15.2539
15.3031
15.3497
15.3939
15.4358
15.4755
15.5133
15.5493
15.5836
15.6163
15.6475
15.6773
15.7058
15.733
15.759
15.784
15.8079
15.8307
15.8526
15.8736
15.8936
15.9128
15.9311
15.9485
15.9651
15.9809
15.9959
16.0101
16.0235
16.0361
16.0479
16.0589
16.0691
16.0786
16.0872
16.0952
16.1024
16.1091
16.1153
16.1213
16.1272
16.1335
16.1408
16.1496
16.1612
16.1751
16.1964
16.1912
-6.28946
-6.34126
-6.40359
-6.45531
-6.5024
-6.55296
-6.6102
-6.67527
-6.74867
-6.83061
-6.92112
-7.02014
-7.12748
-7.2429
-7.36608
-7.49665
-7.63423
-7.77836
-7.9286
-8.08447
-8.24552
-8.41127
-8.58126
-8.75505
-8.93221
-9.11231
-9.29496
-9.47979
-9.66643
-9.85455
-10.0438
-10.2339
-10.4245
-10.6154
-10.8063
-10.9968
-11.1867
-11.3758
-11.5637
-11.7502
-11.935
-12.1177
-12.298
-12.4756
-12.6501
-12.821
-12.9881
-13.1507
-13.3083
-13.4605
-13.6066
-13.7458
-13.8776
-14.0011
-14.1155
-14.2198
-14.3129
-14.3939
-14.4614
-14.5143
-14.551
-14.5701
-14.57
-14.5487
-14.5048
-14.4366
-14.3414
-14.2157
-14.0563
-13.8608
-13.6265
-13.3505
-13.03
-12.662
-12.2437
-11.7725
-11.246
-10.6623
-10.0201
-9.3189
-8.55939
-7.74352
-6.8748
-5.95834
-5.00088
-4.01067
-2.99724
-1.97096
-0.942494
0.0777742
1.08
2.05537
2.99663
3.89787
4.75447
5.56376
6.32412
7.03457
7.69652
8.31114
8.88053
9.40843
9.89578
10.3452
10.7592
11.1401
11.4907
11.8132
12.1102
12.3837
12.6357
12.8682
13.0828
13.2811
13.4644
13.6337
13.7903
13.9353
14.0697
14.1943
14.3102
14.4179
14.5183
14.612
14.6995
14.7813
14.8579
14.9298
14.9974
15.0609
15.1206
15.177
15.2302
15.2806
15.3282
15.3733
15.4161
15.4567
15.4953
15.5321
15.5671
15.6005
15.6323
15.6627
15.6918
15.7195
15.7461
15.7716
15.7959
15.8193
15.8416
15.863
15.8834
15.9029
15.9216
15.9394
15.9563
15.9724
15.9877
16.0022
16.0158
16.0287
16.0407
16.0519
16.0623
16.0719
16.0807
16.0887
16.096
16.1026
16.1087
16.1144
16.1199
16.1255
16.1315
16.1383
16.1465
16.1547
16.1664
16.1455
-6.37598
-6.4255
-6.48704
-6.54126
-6.59175
-6.64557
-6.7058
-6.77356
-6.84929
-6.93315
-7.0251
-7.125
-7.23266
-7.3478
-7.47013
-7.59929
-7.73491
-7.87663
-8.02402
-8.17668
-8.3342
-8.49618
-8.6622
-8.83189
-9.00486
-9.18074
-9.35919
-9.53986
-9.72245
-9.90664
-10.0921
-10.2787
-10.466
-10.6538
-10.8418
-11.0298
-11.2175
-11.4047
-11.5911
-11.7764
-11.9603
-12.1426
-12.3229
-12.5009
-12.6762
-12.8484
-13.0172
-13.1819
-13.3423
-13.4976
-13.6473
-13.7908
-13.9273
-14.0562
-14.1764
-14.2872
-14.3875
-14.4763
-14.5523
-14.6143
-14.6609
-14.6907
-14.7018
-14.6927
-14.6617
-14.607
-14.5261
-14.4155
-14.2719
-14.0929
-13.8756
-13.617
-13.314
-12.9636
-12.5626
-12.1078
-11.5966
-11.0264
-10.3952
-9.70217
-8.94717
-8.13175
-7.25911
-6.3343
-5.36426
-4.35766
-3.32481
-2.27709
-1.22613
-0.183178
0.841008
1.83679
2.79667
3.7145
4.58519
5.40674
6.17798
6.89773
7.56965
8.19466
8.77278
9.30724
9.80016
10.2544
10.6728
11.0577
11.4121
11.7382
12.0386
12.3153
12.5705
12.8059
13.0233
13.2242
13.4099
13.5817
13.7408
13.8881
14.0247
14.1516
14.2695
14.3793
14.4816
14.577
14.6662
14.7497
14.8279
14.9012
14.9701
15.0349
15.0959
15.1534
15.2078
15.2591
15.3077
15.3537
15.3973
15.4388
15.4782
15.5157
15.5514
15.5854
15.6179
15.6489
15.6785
15.7068
15.7339
15.7598
15.7847
15.8084
15.8312
15.853
15.8738
15.8937
15.9127
15.9308
15.9481
15.9645
15.9801
15.9948
16.0087
16.0218
16.034
16.0454
16.056
16.0657
16.0746
16.0827
16.09
16.0966
16.1024
16.1078
16.1127
16.1173
16.1218
16.1263
16.131
16.1334
16.1365
16.1026
-6.48549
-6.52971
-6.58664
-6.63994
-6.69116
-6.74599
-6.80716
-6.87573
-6.95207
-7.0363
-7.12832
-7.22795
-7.33496
-7.44906
-7.56993
-7.69725
-7.83065
-7.96979
-8.11429
-8.26379
-8.41791
-8.5763
-8.73859
-8.90444
-9.07352
-9.2455
-9.42008
-9.59695
-9.77584
-9.95647
-10.1386
-10.3219
-10.5062
-10.6913
-10.8769
-11.0627
-11.2485
-11.4342
-11.6194
-11.8038
-11.9873
-12.1695
-12.3501
-12.5288
-12.7053
-12.8791
-13.0499
-13.2172
-13.3805
-13.5393
-13.6931
-13.8411
-13.9827
-14.1172
-14.2437
-14.3614
-14.4692
-14.566
-14.6508
-14.7223
-14.7791
-14.8197
-14.8425
-14.8457
-14.8276
-14.7865
-14.72
-14.6245
-14.4969
-14.3344
-14.1341
-13.8929
-13.6076
-13.2748
-12.8911
-12.4529
-11.957
-11.4003
-10.7803
-10.0951
-9.34414
-8.52829
-7.6504
-6.71545
-5.73056
-4.7049
-3.64972
-2.57774
-1.50181
-0.434041
0.613647
1.6305
2.60929
3.54392
4.42869
5.26381
6.04853
6.78026
7.46125
8.09287
8.67681
9.21598
9.71305
10.171
10.5926
10.9808
11.3381
11.6671
11.9703
12.2497
12.5075
12.7454
12.9653
13.1686
13.3567
13.5308
13.6921
13.8416
13.9804
14.1094
14.2294
14.3411
14.4452
14.5424
14.6333
14.7184
14.7981
14.8729
14.9431
15.0092
15.0714
15.1301
15.1855
15.2378
15.2874
15.3343
15.3788
15.4211
15.4612
15.4995
15.5358
15.5705
15.6036
15.6352
15.6654
15.6943
15.7219
15.7483
15.7736
15.7978
15.821
15.8432
15.8644
15.8847
15.9041
15.9225
15.9401
15.9569
15.9727
15.9878
16.0019
16.0153
16.0277
16.0393
16.0501
16.0599
16.0689
16.077
16.0843
16.0907
16.0964
16.1012
16.1054
16.109
16.1119
16.1139
16.1148
16.1118
16.1073
16.0626
-6.60245
-6.63953
-6.68927
-6.73904
-6.78884
-6.84289
-6.9034
-6.97129
-7.04687
-7.1302
-7.22115
-7.31953
-7.42505
-7.53742
-7.65632
-7.78141
-7.91235
-8.04879
-8.1904
-8.33682
-8.48772
-8.64276
-8.80163
-8.96401
-9.12961
-9.29812
-9.46929
-9.64284
-9.81852
-9.99609
-10.1753
-10.3559
-10.5378
-10.7206
-10.9042
-11.0884
-11.2728
-11.4574
-11.6419
-11.8259
-12.0094
-12.1919
-12.3733
-12.5531
-12.7311
-12.9069
-13.0801
-13.2503
-13.417
-13.5796
-13.7377
-13.8906
-14.0376
-14.178
-14.3111
-14.4358
-14.5513
-14.6565
-14.7504
-14.8315
-14.8986
-14.9502
-14.9846
-15.0002
-14.9951
-14.9676
-14.9153
-14.8349
-14.723
-14.5769
-14.3934
-14.1695
-13.9018
-13.5865
-13.2201
-12.7986
-12.3182
-11.7753
-11.1667
-10.4896
-9.74267
-8.92612
-8.04233
-7.09619
-6.09504
-5.04845
-3.96895
-2.87105
-1.76904
-0.675463
0.396469
1.43465
2.43376
3.3881
4.29048
5.13951
5.93445
6.67477
7.3623
7.99899
8.58721
9.12991
9.63004
10.0907
10.5149
10.9055
11.2652
11.5966
11.9021
12.1839
12.444
12.6844
12.9066
13.1122
13.3026
13.479
13.6425
13.7942
13.9352
14.0663
14.1883
14.3019
14.408
14.507
14.5996
14.6863
14.7676
14.8438
14.9154
14.9828
15.0463
15.1061
15.1626
15.2161
15.2666
15.3145
15.3599
15.403
15.444
15.4829
15.52
15.5554
15.5892
15.6214
15.6522
15.6816
15.7098
15.7367
15.7625
15.7872
15.8108
15.8334
15.8551
15.8758
15.8955
15.9143
15.9323
15.9493
15.9655
15.9808
15.9953
16.0089
16.0216
16.0334
16.0443
16.0543
16.0634
16.0716
16.0788
16.085
16.0903
16.0947
16.0981
16.1005
16.1016
16.1011
16.0983
16.0902
16.0789
16.0254
-6.71217
-6.74126
-6.78243
-6.82687
-6.8737
-6.92565
-6.98436
-7.05051
-7.12436
-7.20589
-7.29496
-7.39135
-7.49478
-7.60493
-7.72149
-7.84411
-7.97245
-8.10619
-8.24498
-8.3885
-8.53644
-8.68848
-8.84432
-9.00369
-9.1663
-9.33189
-9.50021
-9.67103
-9.84411
-10.0192
-10.1962
-10.3747
-10.5547
-10.7359
-10.9181
-11.1012
-11.2849
-11.4689
-11.6532
-11.8374
-12.0213
-12.2047
-12.3872
-12.5686
-12.7486
-12.9268
-13.1028
-13.2762
-13.4465
-13.6133
-13.776
-13.934
-14.0866
-14.2332
-14.3729
-14.5049
-14.6283
-14.742
-14.8449
-14.9357
-15.0131
-15.0757
-15.1218
-15.1496
-15.1573
-15.1431
-15.1048
-15.039
-14.9425
-14.8123
-14.6453
-14.4382
-14.1875
-13.8894
-13.54
-13.1349
-12.6699
-12.1409
-11.5438
-10.8752
-10.1323
-9.31501
-8.42511
-7.46745
-6.44959
-5.38126
-4.27659
-3.15237
-2.02423
-0.903555
0.195831
1.25941
2.27978
3.25086
4.16736
5.0274
5.83054
6.57729
7.26959
7.90984
8.50089
9.04589
9.54805
10.0106
10.4366
10.829
11.1907
11.5241
11.8317
12.1157
12.3781
12.6208
12.8453
13.0532
13.2459
13.4247
13.5905
13.7446
13.8878
14.021
14.1451
14.2609
14.3689
14.4698
14.5642
14.6526
14.7355
14.8133
14.8864
14.9552
15.02
15.0811
15.1388
15.1933
15.2449
15.2938
15.3401
15.3841
15.426
15.4657
15.5036
15.5397
15.5742
15.6071
15.6385
15.6685
15.6972
15.7247
15.7511
15.7763
15.8004
15.8235
15.8455
15.8666
15.8868
15.906
15.9243
15.9418
15.9583
15.9739
15.9887
16.0025
16.0155
16.0275
16.0386
16.0488
16.058
16.0661
16.0733
16.0794
16.0843
16.0882
16.0907
16.0918
16.0912
16.0881
16.0818
16.0689
16.0516
15.991
-6.8023
-6.8234
-6.85555
-6.89366
-6.93649
-6.98548
-7.04162
-7.10536
-7.17684
-7.256
-7.34268
-7.43665
-7.53762
-7.64528
-7.75931
-7.87937
-8.00513
-8.13627
-8.27245
-8.41336
-8.55869
-8.70816
-8.86147
-9.01836
-9.17858
-9.34188
-9.50801
-9.67677
-9.84793
-10.0213
-10.1967
-10.3739
-10.5527
-10.7329
-10.9144
-11.097
-11.2805
-11.4647
-11.6493
-11.8342
-12.0191
-12.2038
-12.388
-12.5715
-12.7538
-12.9347
-13.1139
-13.2908
-13.4651
-13.6362
-13.8037
-13.967
-14.1254
-14.2783
-14.4247
-14.5641
-14.6953
-14.8174
-14.9292
-15.0297
-15.1173
-15.1906
-15.2481
-15.2878
-15.308
-15.3068
-15.2818
-15.2302
-15.1483
-15.0332
-14.8817
-14.6906
-14.4561
-14.1742
-13.8408
-13.4513
-13.001
-12.4852
-11.8993
-11.2387
-10.4998
-9.68184
-8.78628
-7.81795
-6.78488
-5.69608
-4.56525
-3.41156
-2.25296
-1.10436
0.0198398
1.10601
2.14506
3.13061
4.05836
4.92667
5.73557
6.48633
7.18129
7.82331
8.41562
8.96164
9.46477
9.92833
10.3555
10.7493
11.1125
11.4478
11.7573
12.0435
12.3082
12.5531
12.7801
12.9905
13.1856
13.3668
13.5352
13.6916
13.8372
13.9728
14.0992
14.2171
14.3273
14.4302
14.5265
14.6168
14.7014
14.7809
14.8555
14.9258
14.992
15.0545
15.1134
15.1691
15.2219
15.2718
15.3192
15.3642
15.407
15.4476
15.4863
15.5232
15.5584
15.5921
15.6241
15.6548
15.6842
15.7123
15.7392
15.7649
15.7896
15.8132
15.8357
15.8573
15.8779
15.8975
15.9162
15.934
15.9509
15.9669
15.982
15.9961
16.0094
16.0217
16.033
16.0433
16.0526
16.0608
16.0679
16.0737
16.0784
16.0816
16.0833
16.0831
16.0806
16.075
16.0653
16.048
16.0256
15.9593
-6.86402
-6.87744
-6.90085
-6.93225
-6.97051
-7.016
-7.06912
-7.13005
-7.19879
-7.27526
-7.35928
-7.45061
-7.54897
-7.65406
-7.76557
-7.88316
-8.00651
-8.1353
-8.2692
-8.40791
-8.55112
-8.69856
-8.84994
-9.00501
-9.16351
-9.32522
-9.4899
-9.65734
-9.82734
-9.9997
-10.1742
-10.3508
-10.5292
-10.7092
-10.8907
-11.0735
-11.2574
-11.4422
-11.6278
-11.8139
-12.0004
-12.1868
-12.3731
-12.559
-12.744
-12.928
-13.1105
-13.2912
-13.4696
-13.6453
-13.8177
-13.9863
-14.1505
-14.3095
-14.4627
-14.6092
-14.7481
-14.8784
-14.999
-15.1087
-15.2061
-15.2898
-15.3582
-15.4093
-15.4414
-15.4525
-15.4402
-15.4016
-15.3332
-15.232
-15.0948
-14.9181
-14.6981
-14.4308
-14.1117
-13.736
-13.2987
-12.7949
-12.2197
-11.5682
-10.8353
-10.0184
-9.11809
-8.13843
-7.08747
-5.97649
-4.82011
-3.63788
-2.44987
-1.27416
-0.12681
0.978695
2.0328
3.02924
3.96448
4.83748
5.64893
6.4008
7.09595
7.7377
8.32959
8.87527
9.3783
9.84211
10.2699
10.6647
11.0293
11.3662
11.6777
11.966
12.233
12.4804
12.7099
12.9229
13.1208
13.3046
13.4756
13.6347
13.7829
13.921
14.0499
14.1701
14.2825
14.3877
14.4861
14.5783
14.6648
14.7461
14.8224
14.8943
14.9621
15.026
15.0863
15.1433
15.1973
15.2484
15.2969
15.343
15.3867
15.4283
15.468
15.5057
15.5418
15.5762
15.609
15.6404
15.6704
15.6992
15.7267
15.753
15.7783
15.8024
15.8255
15.8475
15.8686
15.8887
15.9079
15.9261
15.9434
15.9598
15.9752
15.9897
16.0032
16.0158
16.0273
16.0378
16.0472
16.0555
16.0625
16.0681
16.0724
16.075
16.0758
16.0744
16.0701
16.0621
16.0492
16.0278
16.0007
15.9301
-6.89167
-6.89828
-6.91375
-6.93851
-6.97193
-7.01361
-7.06342
-7.12127
-7.18708
-7.26069
-7.34191
-7.43051
-7.52624
-7.6288
-7.73788
-7.85318
-7.97437
-8.10113
-8.23315
-8.37011
-8.51172
-8.6577
-8.80777
-8.96167
-9.11915
-9.27998
-9.44394
-9.61081
-9.7804
-9.95252
-10.127
-10.3036
-10.4823
-10.6628
-10.8449
-11.0286
-11.2136
-11.3997
-11.5868
-11.7746
-11.963
-12.1518
-12.3405
-12.5291
-12.7172
-12.9045
-13.0907
-13.2753
-13.458
-13.6382
-13.8156
-13.9896
-14.1594
-14.3246
-14.4843
-14.6378
-14.7841
-14.9223
-15.0512
-15.1697
-15.2765
-15.37
-15.4486
-15.5105
-15.5538
-15.5764
-15.5759
-15.5493
-15.4933
-15.4048
-15.2805
-15.117
-14.9103
-14.656
-14.3497
-13.9864
-13.5607
-13.0672
-12.5007
-11.856
-11.1279
-10.3118
-9.40676
-8.41574
-7.34644
-6.21157
-5.02846
-3.81836
-2.60337
-1.40389
-0.23732
0.882692
1.9467
2.94894
3.88677
4.75997
5.57006
6.3197
7.01225
7.65145
8.24114
8.78515
9.28711
9.75045
10.1784
10.5739
10.9396
11.2782
11.5917
11.8822
12.1517
12.4018
12.6341
12.85
13.0507
13.2374
13.4113
13.5733
13.7243
13.8651
13.9966
14.1195
14.2343
14.3418
14.4424
14.5368
14.6254
14.7086
14.7868
14.8605
14.9299
14.9953
15.0572
15.1156
15.1709
15.2234
15.2731
15.3203
15.3651
15.4078
15.4484
15.4871
15.524
15.5593
15.5929
15.6251
15.6559
15.6853
15.7135
15.7405
15.7664
15.7911
15.8148
15.8374
15.859
15.8796
15.8992
15.9179
15.9356
15.9524
15.9682
15.9831
15.997
16.0098
16.0216
16.0323
16.0419
16.0501
16.0571
16.0626
16.0665
16.0685
16.0684
16.0657
16.0597
16.0494
16.0335
16.0085
15.9773
15.9032
-6.883
-6.884
-6.89256
-6.91104
-6.93952
-6.97715
-7.02338
-7.07793
-7.14058
-7.21116
-7.28947
-7.37529
-7.46838
-7.56846
-7.67526
-7.78847
-7.90777
-8.03285
-8.1634
-8.29909
-8.43963
-8.58473
-8.73411
-8.8875
-9.04464
-9.2053
-9.36926
-9.5363
-9.70621
-9.87882
-10.0539
-10.2314
-10.411
-10.5926
-10.7761
-10.9612
-11.1479
-11.3359
-11.525
-11.7151
-11.906
-12.0974
-12.289
-12.4807
-12.6722
-12.8631
-13.0531
-13.2419
-13.429
-13.614
-13.7964
-13.9757
-14.1513
-14.3225
-14.4887
-14.649
-14.8025
-14.9484
-15.0854
-15.2125
-15.3282
-15.4312
-15.5196
-15.5919
-15.6459
-15.6795
-15.69
-15.6745
-15.6298
-15.5529
-15.4404
-15.2887
-15.0935
-14.8506
-14.5549
-14.2013
-13.7843
-13.2979
-12.7365
-12.0943
-11.3659
-10.5464
-9.63378
-8.62987
-7.54199
-6.38391
-5.17527
-3.93979
-2.70196
-1.48406
-0.304464
0.82322
1.89015
2.89155
3.82589
4.69396
5.49812
6.24174
6.9287
7.56305
8.14879
8.6898
9.18975
9.65202
10.0797
10.4757
10.8427
11.1828
11.4984
11.7915
12.0637
12.3167
12.552
12.771
12.9749
13.1648
13.3419
13.507
13.661
13.8048
13.9392
14.0648
14.1823
14.2923
14.3954
14.4921
14.5829
14.6682
14.7485
14.824
14.8952
14.9624
15.0258
15.0858
15.1426
15.1964
15.2475
15.2959
15.342
15.3858
15.4275
15.4672
15.5051
15.5413
15.5759
15.6089
15.6405
15.6707
15.6997
15.7274
15.7539
15.7792
15.8035
15.8267
15.8489
15.8701
15.8902
15.9094
15.9276
15.9449
15.9611
15.9764
15.9906
16.0038
16.0159
16.0268
16.0365
16.0449
16.0518
16.0571
16.0607
16.0622
16.0612
16.0573
16.0496
16.0371
16.0185
15.9903
15.9553
15.8788
-6.84014
-6.83656
-6.8392
-6.85181
-6.87523
-6.90845
-6.9507
-7.00156
-7.06075
-7.12806
-7.2033
-7.28628
-7.37676
-7.47449
-7.57922
-7.69063
-7.80841
-7.93225
-8.06182
-8.1968
-8.33688
-8.48174
-8.63109
-8.78465
-8.94216
-9.10336
-9.26802
-9.43592
-9.60684
-9.78061
-9.95702
-10.1359
-10.3171
-10.5005
-10.6858
-10.873
-11.0618
-11.2521
-11.4437
-11.6365
-11.8301
-12.0245
-12.2193
-12.4144
-12.6094
-12.8041
-12.9981
-13.1911
-13.3827
-13.5725
-13.7599
-13.9446
-14.1258
-14.303
-14.4755
-14.6425
-14.8031
-14.9563
-15.1012
-15.2365
-15.3609
-15.473
-15.5709
-15.6529
-15.7172
-15.7613
-15.7821
-15.7766
-15.7421
-15.6755
-15.5734
-15.4316
-15.2459
-15.0115
-14.723
-14.3749
-13.9614
-13.4764
-12.9138
-12.2678
-11.533
-10.7048
-9.78056
-8.76154
-7.65476
-6.47483
-5.24356
-3.98737
-2.73319
-1.5049
-0.321193
0.804952
1.86588
2.85822
3.78179
4.63857
5.43181
6.16545
6.84374
7.4709
8.05101
8.58788
9.08507
9.54581
9.97306
10.3695
10.7376
11.0796
11.3976
11.6933
11.9685
12.2247
12.4634
12.6858
12.8931
13.0866
13.267
13.4355
13.5928
13.7398
13.8773
14.0059
14.1263
14.2391
14.3448
14.444
14.5372
14.6248
14.7072
14.7848
14.8579
14.927
14.9922
15.0539
15.1123
15.1676
15.2201
15.2699
15.3172
15.3623
15.4052
15.446
15.485
15.5222
15.5577
15.5917
15.6242
15.6552
15.685
15.7134
15.7407
15.7668
15.7917
15.8156
15.8384
15.8602
15.8809
15.9006
15.9194
15.9371
15.9538
15.9695
15.9842
15.9977
16.0101
16.0214
16.0312
16.0397
16.0466
16.0518
16.0551
16.056
16.0542
16.0492
16.04
16.0255
16.0043
15.9733
15.935
15.8566
-6.76886
-6.76167
-6.75927
-6.76639
-6.78451
-6.81277
-6.8504
-6.89696
-6.95218
-7.01585
-7.0878
-7.16784
-7.25575
-7.35129
-7.4542
-7.56416
-7.68086
-7.80395
-7.93309
-8.06793
-8.20814
-8.35339
-8.50335
-8.65773
-8.81623
-8.9786
-9.14458
-9.31394
-9.48646
-9.66193
-9.84018
-10.021
-10.2043
-10.3898
-10.5774
-10.767
-10.9583
-11.1512
-11.3455
-11.5411
-11.7378
-11.9353
-12.1334
-12.3319
-12.5305
-12.729
-12.927
-13.1241
-13.3201
-13.5145
-13.7068
-13.8966
-14.0832
-14.2661
-14.4446
-14.6178
-14.7851
-14.9454
-15.0976
-15.2406
-15.3731
-15.4935
-15.6002
-15.6913
-15.765
-15.8188
-15.8487
-15.8517
-15.8259
-15.7683
-15.6748
-15.5411
-15.3625
-15.1335
-14.8485
-14.5013
-14.0854
-13.5945
-13.0224
-12.3635
-11.6133
-10.7681
-9.8261
-8.78864
-7.66266
-6.46343
-5.21468
-3.94541
-2.68473
-1.45742
-0.281705
0.83095
1.87479
2.84834
3.75297
4.59181
5.36888
6.08855
6.75522
7.37312
7.94617
8.47798
8.97184
9.43076
9.85747
10.2544
10.6239
10.968
11.2886
11.5873
11.8658
12.1255
12.3679
12.5941
12.8052
13.0024
13.1866
13.3587
13.5196
13.6701
13.8108
13.9427
14.0661
14.1819
14.2905
14.3924
14.4881
14.5781
14.6629
14.7427
14.818
14.889
14.9561
15.0196
15.0797
15.1367
15.1907
15.242
15.2908
15.3372
15.3814
15.4235
15.4636
15.5019
15.5385
15.5734
15.6069
15.6389
15.6695
15.6988
15.7268
15.7537
15.7794
15.804
15.8274
15.8499
15.8712
15.8916
15.9109
15.9291
15.9464
15.9626
15.9777
15.9916
16.0044
16.0159
16.026
16.0347
16.0416
16.0467
16.0497
16.0501
16.0476
16.0415
16.0309
16.0145
15.9912
15.9576
15.9164
15.8368
-6.67751
-6.66729
-6.66002
-6.66126
-6.67313
-6.6952
-6.72696
-6.76812
-6.81847
-6.87787
-6.94614
-7.0231
-7.1085
-7.20209