/*--------------------------------*- C++ -*----------------------------------*\
| =========                 |                                                 |
| \\      /  F ield         | OpenFOAM: The Open Source CFD Toolbox           |
|  \\    /   O peration     | Version:  2.2.x                                 |
|   \\  /    A nd           | Web:      www.OpenFOAM.org                      |
|    \\/     M anipulation  |                                                 |
\*---------------------------------------------------------------------------*/
FoamFile
{
    version     2.0;
    format      ascii;
    class       surfaceScalarField;
    location    "200";
    object      phi;
}
// * * * * * * * * * * * * * * * * * * * * * * * * * * * * * * * * * * * * * //

dimensions      [0 3 -1 0 0 0 0];

internalField   nonuniform List<scalar> 
24170
(
3.08807e-06
4.58217e-08
3.01393e-06
7.41444e-08
2.95149e-06
6.24336e-08
2.88883e-06
6.2671e-08
2.82876e-06
6.00647e-08
2.77271e-06
5.60501e-08
2.7207e-06
5.20145e-08
2.67243e-06
4.82685e-08
2.62759e-06
4.48433e-08
2.58585e-06
4.17356e-08
2.54692e-06
3.89344e-08
2.51049e-06
3.6426e-08
2.47629e-06
3.42041e-08
2.44401e-06
3.2281e-08
2.41328e-06
3.07252e-08
2.38337e-06
2.99149e-08
2.35164e-06
3.17298e-08
3.79436e-08
2.3137e-06
3.46849e-06
3.378e-08
3.45762e-06
8.50088e-08
3.44279e-06
7.72721e-08
3.42754e-06
7.79188e-08
3.4108e-06
7.68073e-08
3.39298e-06
7.38789e-08
3.37437e-06
7.06214e-08
3.35521e-06
6.74306e-08
3.33569e-06
6.43592e-08
3.31599e-06
6.1438e-08
3.29622e-06
5.86997e-08
3.27647e-06
5.61752e-08
3.25677e-06
5.39043e-08
3.2371e-06
5.19557e-08
3.21735e-06
5.04783e-08
3.1974e-06
4.98615e-08
3.17836e-06
5.07783e-08
5.22676e-08
3.16403e-06
3.80912e-06
3.68541e-08
3.81754e-06
7.65935e-08
3.81945e-06
7.53654e-08
3.82108e-06
7.62884e-08
3.82132e-06
7.65725e-08
3.8201e-06
7.50998e-08
3.81774e-06
7.29794e-08
3.81447e-06
7.07034e-08
3.81043e-06
6.83944e-08
3.80574e-06
6.6123e-08
3.80049e-06
6.39558e-08
3.79471e-06
6.19545e-08
3.78843e-06
6.01871e-08
3.78163e-06
5.87491e-08
3.77432e-06
5.7799e-08
3.76657e-06
5.76028e-08
3.75896e-06
5.8389e-08
5.91262e-08
3.75211e-06
4.2059e-06
3.55142e-08
4.21488e-06
6.76145e-08
4.21887e-06
7.13797e-08
4.22203e-06
7.3122e-08
4.22443e-06
7.41822e-08
4.22597e-06
7.35604e-08
4.22687e-06
7.2081e-08
4.22726e-06
7.03113e-08
4.22721e-06
6.84469e-08
4.22674e-06
6.65875e-08
4.22588e-06
6.48168e-08
4.22462e-06
6.32097e-08
4.22297e-06
6.18434e-08
4.2209e-06
6.08148e-08
4.21845e-06
6.02546e-08
4.21574e-06
6.03148e-08
4.2131e-06
6.10248e-08
6.16415e-08
4.21058e-06
4.64059e-06
3.22358e-08
4.64827e-06
5.99349e-08
4.65284e-06
6.68108e-08
4.6565e-06
6.94644e-08
4.65967e-06
7.1008e-08
4.66225e-06
7.09796e-08
4.66432e-06
7.00147e-08
4.66595e-06
6.8677e-08
4.6672e-06
6.72039e-08
4.66807e-06
6.57154e-08
4.66858e-06
6.43052e-08
4.66873e-06
6.30556e-08
4.66853e-06
6.20466e-08
4.66798e-06
6.13675e-08
4.66712e-06
6.11179e-08
4.66605e-06
6.13836e-08
4.66492e-06
6.21501e-08
6.30442e-08
4.66352e-06
5.1182e-06
2.86344e-08
5.12511e-06
5.30196e-08
5.13021e-06
6.17163e-08
5.13438e-06
6.52967e-08
5.13806e-06
6.73215e-08
5.1412e-06
6.78464e-08
5.14382e-06
6.73939e-08
5.146e-06
6.64932e-08
5.1478e-06
6.54103e-08
5.14923e-06
6.42862e-08
5.1503e-06
6.32251e-08
5.15105e-06
6.23149e-08
5.15146e-06
6.16358e-08
5.15156e-06
6.12664e-08
5.1514e-06
6.12814e-08
5.15105e-06
6.17296e-08
5.15061e-06
6.25909e-08
6.3663e-08
5.14999e-06
5.64438e-06
2.52618e-08
5.65075e-06
4.66479e-08
5.65616e-06
5.63082e-08
5.66072e-06
6.07367e-08
5.66479e-06
6.32559e-08
5.66833e-06
6.43073e-08
5.67136e-06
6.43597e-08
5.67396e-06
6.39008e-08
5.67615e-06
6.32137e-08
5.67798e-06
6.24574e-08
5.67946e-06
6.17451e-08
5.68061e-06
6.11679e-08
5.68144e-06
6.08034e-08
5.68199e-06
6.07196e-08
5.6823e-06
6.09723e-08
5.68243e-06
6.15914e-08
5.68246e-06
6.25627e-08
6.37704e-08
5.68235e-06
4.4084e-06
2.29741e-08
4.41258e-06
4.24668e-08
4.41654e-06
5.23465e-08
4.42e-06
5.7283e-08
4.4231e-06
6.01513e-08
4.42586e-06
6.15494e-08
4.42827e-06
6.19482e-08
4.43037e-06
6.18062e-08
4.43217e-06
6.14074e-08
4.43371e-06
6.0919e-08
4.435e-06
6.04588e-08
4.43605e-06
6.01189e-08
4.43688e-06
5.99734e-08
4.43751e-06
6.0083e-08
4.43799e-06
6.04928e-08
4.43836e-06
6.12241e-08
4.43866e-06
6.22649e-08
6.35245e-08
4.4389e-06
5.14218e-06
2.06544e-08
5.14641e-06
3.8237e-08
5.15064e-06
4.81105e-08
5.15448e-06
5.34427e-08
5.158e-06
5.66324e-08
5.16118e-06
5.83717e-08
5.164e-06
5.91247e-08
5.16649e-06
5.93168e-08
5.16867e-06
5.92273e-08
5.17056e-06
5.90279e-08
5.17218e-06
5.88386e-08
5.17355e-06
5.87504e-08
5.17469e-06
5.88331e-08
5.17564e-06
5.914e-08
5.17642e-06
5.97068e-08
5.1771e-06
6.05475e-08
5.17771e-06
6.165e-08
6.29383e-08
5.1783e-06
5.99811e-06
1.83339e-08
6.00233e-06
3.40208e-08
6.00678e-06
4.3658e-08
6.01098e-06
4.92451e-08
6.01491e-06
5.27018e-08
6.01853e-06
5.47561e-08
6.0218e-06
5.58548e-08
6.02473e-06
5.63854e-08
6.02734e-06
5.66161e-08
6.02965e-06
5.67184e-08
6.03167e-06
5.68114e-08
6.03344e-06
5.69827e-08
6.03498e-06
5.72967e-08
6.03632e-06
5.77988e-08
6.03751e-06
5.85162e-08
6.0386e-06
5.9457e-08
6.03964e-06
6.06072e-08
6.18967e-08
6.04068e-06
6.99656e-06
1.60416e-08
7.00071e-06
2.98734e-08
7.00532e-06
3.90391e-08
7.00985e-06
4.47189e-08
7.01418e-06
4.83678e-08
7.01825e-06
5.06902e-08
7.022e-06
5.21073e-08
7.02542e-06
5.29648e-08
7.02852e-06
5.35127e-08
7.03132e-06
5.39172e-08
7.03384e-06
5.42925e-08
7.0361e-06
5.47207e-08
7.03814e-06
5.52594e-08
7.03999e-06
5.59459e-08
7.04171e-06
5.68001e-08
7.04334e-06
5.78243e-08
7.04494e-06
5.90022e-08
6.0266e-08
7.04657e-06
8.16126e-06
1.38005e-08
8.1653e-06
2.58231e-08
8.17004e-06
3.42995e-08
8.17487e-06
3.98891e-08
8.17961e-06
4.36319e-08
8.18414e-06
4.61544e-08
8.18841e-06
4.78424e-08
8.19238e-06
4.89972e-08
8.19605e-06
4.98435e-08
8.19943e-06
5.05356e-08
8.20254e-06
5.11795e-08
8.20541e-06
5.18493e-08
8.20808e-06
5.25944e-08
8.21058e-06
5.34446e-08
8.21297e-06
5.44127e-08
8.21529e-06
5.54962e-08
8.21762e-06
5.66769e-08
5.78891e-08
8.21999e-06
9.51991e-06
1.16208e-08
9.52386e-06
2.18696e-08
9.52869e-06
2.94663e-08
9.53381e-06
3.47686e-08
9.53896e-06
3.84791e-08
9.54401e-06
4.11108e-08
9.54885e-06
4.30001e-08
9.55345e-06
4.44018e-08
9.55778e-06
4.55088e-08
9.56186e-06
4.64574e-08
9.5657e-06
4.73415e-08
9.56932e-06
4.82243e-08
9.57277e-06
4.91465e-08
9.57608e-06
5.01303e-08
9.57931e-06
5.11823e-08
9.58251e-06
5.22967e-08
9.58574e-06
5.3454e-08
5.4593e-08
9.58903e-06
1.11048e-05
9.4941e-09
1.11087e-05
1.79804e-08
1.11137e-05
2.45318e-08
1.11191e-05
2.93439e-08
1.11247e-05
3.28686e-08
1.11303e-05
3.54924e-08
1.11358e-05
3.74888e-08
1.11412e-05
3.90635e-08
1.11463e-05
4.03726e-08
1.11512e-05
4.15287e-08
1.1156e-05
4.26089e-08
1.11605e-05
4.36641e-08
1.11649e-05
4.47247e-08
1.11693e-05
4.58054e-08
1.11735e-05
4.69084e-08
1.11778e-05
4.80251e-08
1.11821e-05
4.91368e-08
5.01884e-08
1.11865e-05
1.29537e-05
7.38797e-09
1.29576e-05
1.40848e-08
1.29627e-05
1.94353e-08
1.29685e-05
2.35528e-08
1.29747e-05
2.67149e-08
1.2981e-05
2.9187e-08
1.29873e-05
3.11715e-08
1.29935e-05
3.28215e-08
1.29997e-05
3.42528e-08
1.30056e-05
3.55491e-08
1.30115e-05
3.67673e-08
1.30172e-05
3.79435e-08
1.30228e-05
3.90975e-08
1.30284e-05
4.02368e-08
1.30339e-05
4.13592e-08
1.30395e-05
4.24554e-08
1.30451e-05
4.35081e-08
4.44702e-08
1.30509e-05
1.51106e-05
5.23789e-09
1.51146e-05
1.00604e-08
1.512e-05
1.40416e-08
1.51263e-05
1.72547e-08
1.51332e-05
1.98585e-08
1.51403e-05
2.20125e-08
1.51477e-05
2.38446e-08
1.5155e-05
2.54521e-08
1.51624e-05
2.69077e-08
1.51697e-05
2.82628e-08
1.51769e-05
2.95511e-08
1.5184e-05
3.07921e-08
1.51912e-05
3.19941e-08
1.51982e-05
3.31573e-08
1.52053e-05
3.42759e-08
1.52124e-05
3.53398e-08
1.52196e-05
3.63341e-08
3.72198e-08
1.52269e-05
1.76267e-05
2.93761e-09
1.76311e-05
5.70822e-09
1.7637e-05
8.1066e-09
1.76441e-05
1.01861e-08
1.76519e-05
1.20197e-08
1.76603e-05
1.36741e-08
1.76689e-05
1.5201e-08
1.76777e-05
1.66386e-08
1.76866e-05
1.80138e-08
1.76956e-05
1.9343e-08
1.77045e-05
2.06341e-08
1.77134e-05
2.18883e-08
1.77223e-05
2.31017e-08
1.77312e-05
2.42669e-08
1.77401e-05
2.5374e-08
1.7749e-05
2.64119e-08
1.7758e-05
2.73677e-08
2.82104e-08
1.7767e-05
1.78285e-05
6.5523e-10
1.78328e-05
1.36367e-09
1.78388e-05
2.12742e-09
1.7846e-05
2.99529e-09
1.7854e-05
3.973e-09
1.78627e-05
5.04248e-09
1.78717e-05
6.18308e-09
1.7881e-05
7.3772e-09
1.78904e-05
8.6082e-09
1.78998e-05
9.85913e-09
1.79094e-05
1.11133e-08
1.79189e-05
1.23546e-08
1.79284e-05
1.35671e-08
1.7938e-05
1.47361e-08
1.79475e-05
1.58478e-08
1.7957e-05
1.68894e-08
1.79665e-05
1.78488e-08
1.87005e-08
1.7976e-05
1.58835e-05
-1.46138e-09
1.58875e-05
-2.67939e-09
1.58931e-05
-3.45007e-09
1.58998e-05
-3.70998e-09
1.59073e-05
-3.5231e-09
1.59153e-05
-2.99735e-09
1.59237e-05
-2.22133e-09
1.59324e-05
-1.26139e-09
1.59411e-05
-1.72147e-10
1.595e-05
1.00046e-09
1.59589e-05
2.21878e-09
1.59678e-05
3.45196e-09
1.59767e-05
4.67442e-09
1.59856e-05
5.86473e-09
1.59944e-05
7.00516e-09
1.60032e-05
8.08106e-09
1.6012e-05
9.07959e-09
9.97918e-09
1.60207e-05
1.41507e-05
-3.4875e-09
1.41546e-05
-6.58319e-09
1.416e-05
-8.83137e-09
1.41664e-05
-1.01224e-08
1.41735e-05
-1.06281e-08
1.41811e-05
-1.05704e-08
1.4189e-05
-1.01026e-08
1.4197e-05
-9.33379e-09
1.42052e-05
-8.3534e-09
1.42134e-05
-7.23323e-09
1.42217e-05
-6.02869e-09
1.42299e-05
-4.78261e-09
1.42381e-05
-3.5289e-09
1.42463e-05
-2.29456e-09
1.42544e-05
-1.1009e-09
1.42624e-05
3.5353e-11
1.42704e-05
1.1007e-09
2.07552e-09
1.42783e-05
1.2607e-05
-5.44224e-09
1.26109e-05
-1.0451e-08
1.26162e-05
-1.41523e-08
1.26224e-05
-1.63504e-08
1.26292e-05
-1.74246e-08
1.26364e-05
-1.77429e-08
1.26438e-05
-1.75108e-08
1.26513e-05
-1.68749e-08
1.26589e-05
-1.59586e-08
1.26666e-05
-1.48567e-08
1.26742e-05
-1.36385e-08
1.26817e-05
-1.23561e-08
1.26893e-05
-1.10501e-08
1.26967e-05
-9.75191e-09
1.27041e-05
-8.48617e-09
1.27114e-05
-7.27217e-09
1.27186e-05
-6.12528e-09
-5.06469e-09
1.27258e-05
1.12316e-05
-7.28261e-09
1.12356e-05
-1.43689e-08
1.12409e-05
-1.95117e-08
1.1247e-05
-2.24384e-08
1.12535e-05
-2.39384e-08
1.12603e-05
-2.45363e-08
1.12673e-05
-2.44597e-08
1.12743e-05
-2.38914e-08
1.12813e-05
-2.29903e-08
1.12883e-05
-2.18703e-08
1.12953e-05
-2.06105e-08
1.13022e-05
-1.92694e-08
1.13091e-05
-1.78918e-08
1.13158e-05
-1.65122e-08
1.13225e-05
-1.51571e-08
1.13291e-05
-1.38476e-08
1.13355e-05
-1.25999e-08
-1.14334e-08
1.13419e-05
1.00062e-05
-8.88821e-09
1.00103e-05
-1.84428e-08
1.00158e-05
-2.4991e-08
1.00217e-05
-2.83879e-08
1.0028e-05
-3.01655e-08
1.00344e-05
-3.09479e-08
1.00409e-05
-3.09432e-08
1.00473e-05
-3.03784e-08
1.00538e-05
-2.94474e-08
1.00602e-05
-2.82764e-08
1.00665e-05
-2.69502e-08
1.00728e-05
-2.55313e-08
1.0079e-05
-2.4067e-08
1.00851e-05
-2.25934e-08
1.0091e-05
-2.11388e-08
1.00969e-05
-1.97271e-08
1.01027e-05
-1.83789e-08
-1.71203e-08
1.01084e-05
8.91426e-06
-1.00493e-08
8.91861e-06
-2.2794e-08
8.92421e-06
-3.05887e-08
8.92995e-06
-3.413e-08
8.93585e-06
-3.60605e-08
8.94183e-06
-3.69297e-08
8.9478e-06
-3.69075e-08
8.95371e-06
-3.62872e-08
8.95955e-06
-3.52913e-08
8.96532e-06
-3.40479e-08
8.97101e-06
-3.26419e-08
8.97662e-06
-3.11368e-08
8.98213e-06
-2.95801e-08
8.98755e-06
-2.80072e-08
8.99285e-06
-2.64455e-08
8.99804e-06
-2.49177e-08
9.00311e-06
-2.34436e-08
-2.20474e-08
9.00804e-06
7.94115e-06
-1.05282e-08
7.94601e-06
-2.76571e-08
7.95157e-06
-3.61502e-08
7.95696e-06
-3.95151e-08
7.96247e-06
-4.1567e-08
7.96798e-06
-4.24451e-08
7.9734e-06
-4.23238e-08
7.97871e-06
-4.15959e-08
7.98392e-06
-4.05025e-08
7.98904e-06
-3.91661e-08
7.99406e-06
-3.76685e-08
7.999e-06
-3.60718e-08
8.00384e-06
-3.44214e-08
8.00858e-06
-3.27505e-08
8.01322e-06
-3.10843e-08
8.01775e-06
-2.94458e-08
8.02217e-06
-2.7863e-08
-2.6387e-08
8.02651e-06
7.07308e-06
-9.27481e-09
7.07907e-06
-3.36491e-08
7.08433e-06
-4.14119e-08
7.08913e-06
-4.43127e-08
7.0941e-06
-4.65345e-08
7.09903e-06
-4.73808e-08
7.10385e-06
-4.71344e-08
7.10854e-06
-4.62925e-08
7.11314e-06
-4.50948e-08
7.11763e-06
-4.3656e-08
7.12201e-06
-4.20572e-08
7.1263e-06
-4.03604e-08
7.13049e-06
-3.86096e-08
7.13458e-06
-3.68346e-08
7.13855e-06
-3.50555e-08
7.14239e-06
-3.32843e-08
7.14605e-06
-3.1531e-08
-2.98066e-08
7.14947e-06
6.29723e-06
-3.99477e-09
6.30569e-06
-4.21106e-08
6.31094e-06
-4.6655e-08
6.31548e-06
-4.886e-08
6.31995e-06
-5.10003e-08
6.32408e-06
-5.15103e-08
6.32794e-06
-5.09905e-08
6.33163e-06
-4.99773e-08
6.33518e-06
-4.86526e-08
6.33863e-06
-4.7104e-08
6.34198e-06
-4.54047e-08
6.34523e-06
-4.36128e-08
6.34839e-06
-4.17696e-08
6.35146e-06
-3.99022e-08
6.35443e-06
-3.80257e-08
6.35729e-06
-3.61432e-08
6.36002e-06
-3.42593e-08
-3.23863e-08
6.3626e-06
5.60118e-06
9.72077e-09
5.61095e-06
-5.18791e-08
5.61532e-06
-5.10203e-08
5.62011e-06
-5.3654e-08
5.62455e-06
-5.54326e-08
5.62808e-06
-5.50389e-08
5.63086e-06
-5.37744e-08
5.63309e-06
-5.22031e-08
5.63488e-06
-5.04422e-08
5.63632e-06
-4.85461e-08
5.63749e-06
-4.65681e-08
5.63842e-06
-4.45506e-08
5.63918e-06
-4.25236e-08
5.63978e-06
-4.05057e-08
5.64026e-06
-3.85024e-08
5.64061e-06
-3.64957e-08
5.64078e-06
-3.44285e-08
-3.2042e-08
5.64043e-06
5.00895e-06
3.07968e-09
5.00544e-06
-4.83667e-08
4.99729e-06
-4.28743e-08
4.99104e-06
-4.74077e-08
4.98474e-06
-4.91315e-08
4.97799e-06
-4.82885e-08
4.97075e-06
-4.65328e-08
4.96302e-06
-4.44645e-08
4.95483e-06
-4.22583e-08
4.94629e-06
-4.00042e-08
4.93749e-06
-3.77644e-08
4.92852e-06
-3.55785e-08
4.91946e-06
-3.34693e-08
4.9104e-06
-3.1448e-08
4.90141e-06
-2.95144e-08
4.89257e-06
-2.7648e-08
4.88392e-06
-2.5782e-08
-2.34736e-08
4.87535e-06
4.45963e-06
4.41126e-06
4.36839e-06
4.32098e-06
4.27185e-06
4.22356e-06
4.17703e-06
4.13257e-06
4.09031e-06
4.0503e-06
4.01254e-06
3.97696e-06
3.94349e-06
3.91204e-06
3.88253e-06
3.85488e-06
3.8291e-06
3.80562e-06
5.06552e-08
-5.06509e-08
5.41394e-08
-3.44753e-09
1.35294e-08
4.06345e-08
-6.17966e-08
7.53382e-08
-1.56303e-07
9.45209e-08
-2.61246e-07
1.04949e-07
-3.72671e-07
1.11429e-07
-4.88527e-07
1.15858e-07
-6.07535e-07
1.1901e-07
-7.28747e-07
1.21212e-07
-8.51383e-07
1.22636e-07
-9.74788e-07
1.23403e-07
-1.0984e-06
1.23613e-07
-1.22175e-06
1.2335e-07
-1.34444e-06
1.22686e-07
-1.46613e-06
1.21688e-07
-1.58654e-06
1.20412e-07
-1.70546e-06
1.1891e-07
-1.82268e-06
1.17226e-07
-1.93808e-06
1.15399e-07
-2.05155e-06
1.13464e-07
-2.163e-06
1.11452e-07
-2.27239e-06
1.09387e-07
-2.37968e-06
1.07293e-07
-2.48487e-06
1.05187e-07
-2.58795e-06
1.03085e-07
-2.68895e-06
1.01e-07
-2.78789e-06
9.89407e-08
-2.8848e-06
9.69162e-08
-2.97973e-06
9.49317e-08
-3.07272e-06
9.29913e-08
-3.16381e-06
9.10971e-08
-3.25306e-06
8.92501e-08
-3.34051e-06
8.745e-08
-3.4262e-06
8.56961e-08
-3.51018e-06
8.39861e-08
-3.5925e-06
8.23172e-08
-3.67318e-06
8.06856e-08
-3.75227e-06
7.90867e-08
-3.82979e-06
7.75157e-08
-3.90575e-06
7.5967e-08
-3.98019e-06
7.44344e-08
-4.0531e-06
7.29111e-08
-4.12449e-06
7.13899e-08
-4.19435e-06
6.98633e-08
-4.26268e-06
6.83229e-08
-4.32944e-06
6.67604e-08
-4.39461e-06
6.51663e-08
-4.45814e-06
6.35315e-08
-4.51998e-06
6.18455e-08
-4.58008e-06
6.00978e-08
-4.63836e-06
5.82767e-08
-4.69473e-06
5.63701e-08
-4.7491e-06
5.43651e-08
-4.80135e-06
5.22476e-08
-4.85135e-06
5.0003e-08
-4.89897e-06
4.76156e-08
-4.94404e-06
4.50684e-08
-4.98638e-06
4.23429e-08
-5.02581e-06
3.94192e-08
-5.06209e-06
3.62763e-08
-5.09498e-06
3.2892e-08
-5.12422e-06
2.92428e-08
-5.14953e-06
2.53022e-08
-5.17057e-06
2.10399e-08
-5.18699e-06
1.64224e-08
-5.1984e-06
1.14157e-08
-5.20438e-06
5.98362e-09
-5.20446e-06
8.00805e-11
-5.19817e-06
-6.2807e-09
-5.18508e-06
-1.30821e-08
-5.16471e-06
-2.03608e-08
-5.13658e-06
-2.8131e-08
-5.10018e-06
-3.63948e-08
-5.05503e-06
-4.51427e-08
-5.00068e-06
-5.43511e-08
-4.9367e-06
-6.39801e-08
-4.86272e-06
-7.39704e-08
-4.77848e-06
-8.42416e-08
-4.6838e-06
-9.46909e-08
-4.57861e-06
-1.05193e-07
-4.46301e-06
-1.15602e-07
-4.33727e-06
-1.25754e-07
-4.20179e-06
-1.35476e-07
-4.05721e-06
-1.44591e-07
-3.90429e-06
-1.52926e-07
-3.74397e-06
-1.60324e-07
-3.57732e-06
-1.66652e-07
-3.40551e-06
-1.7181e-07
-3.22978e-06
-1.75733e-07
-3.05138e-06
-1.78398e-07
-2.87155e-06
-1.79819e-07
-2.6915e-06
-1.80045e-07
-2.51234e-06
-1.79156e-07
-2.33508e-06
-1.77256e-07
-2.1606e-06
-1.74467e-07
-1.98969e-06
-1.70914e-07
-1.82296e-06
-1.66728e-07
-1.66091e-06
-1.62044e-07
-1.50392e-06
-1.56985e-07
-1.35227e-06
-1.51658e-07
-1.20611e-06
-1.46165e-07
-1.06552e-06
-1.40591e-07
-9.30498e-07
-1.35031e-07
-8.00971e-07
-1.29541e-07
-6.76807e-07
-1.24176e-07
-5.5782e-07
-1.18992e-07
-4.43793e-07
-1.14037e-07
-3.34483e-07
-1.09328e-07
-2.29676e-07
-1.04819e-07
-1.2877e-07
-1.00901e-07
-3.13681e-08
-9.73954e-08
6.18264e-08
-9.31936e-08
1.50266e-07
-8.8443e-08
2.3409e-07
-8.38295e-08
3.13613e-07
-7.95324e-08
3.89175e-07
-7.55738e-08
4.61084e-07
-7.19203e-08
5.29614e-07
-6.85345e-08
5.95003e-07
-6.5383e-08
6.57459e-07
-6.24419e-08
7.17162e-07
-5.96926e-08
7.74281e-07
-5.71143e-08
8.28973e-07
-5.46856e-08
8.81374e-07
-5.23918e-08
9.31607e-07
-5.02254e-08
9.79787e-07
-4.81784e-08
1.02602e-06
-4.62383e-08
1.07042e-06
-4.43939e-08
1.11306e-06
-4.26411e-08
1.15404e-06
-4.09789e-08
1.19343e-06
-3.94007e-08
1.23133e-06
-3.78967e-08
1.26779e-06
-3.64611e-08
1.30288e-06
-3.50932e-08
1.33668e-06
-3.37926e-08
1.36923e-06
-3.25541e-08
1.4006e-06
-3.13706e-08
1.43084e-06
-3.02382e-08
1.46e-06
-2.91572e-08
1.48814e-06
-2.8129e-08
1.51528e-06
-2.71513e-08
1.5415e-06
-2.62179e-08
1.56683e-06
-2.53239e-08
1.59131e-06
-2.44692e-08
1.61497e-06
-2.36565e-08
1.63785e-06
-2.28854e-08
1.66e-06
-2.21512e-08
1.68145e-06
-2.1449e-08
1.70223e-06
-2.07771e-08
1.72238e-06
-2.01368e-08
1.74191e-06
-1.95293e-08
1.76086e-06
-1.89532e-08
1.77926e-06
-1.84056e-08
1.79715e-06
-1.78826e-08
1.81453e-06
-1.73816e-08
1.83145e-06
-1.69062e-08
1.84791e-06
-1.64601e-08
1.86395e-06
-1.6039e-08
1.87958e-06
-1.56374e-08
1.89483e-06
-1.52527e-08
1.90971e-06
-1.48815e-08
1.92423e-06
-1.45231e-08
1.9384e-06
-1.41758e-08
1.95224e-06
-1.38328e-08
1.96572e-06
-1.34893e-08
1.97886e-06
-1.31374e-08
1.99162e-06
-1.27632e-08
2.00397e-06
-1.23529e-08
2.01583e-06
-1.18704e-08
2.02711e-06
-1.12744e-08
2.03763e-06
-1.05224e-08
2.04716e-06
-9.5281e-09
2.05528e-06
-8.13381e-09
2.06138e-06
-6.09105e-09
2.0644e-06
-3.01378e-09
2.06242e-06
1.96896e-09
2.05096e-06
1.14677e-08
2.01859e-06
3.23674e-08
9.71962e-08
1.92138e-06
-4.45499e-08
-6.10188e-09
-1.14596e-07
6.66012e-08
-1.91207e-07
1.17249e-07
-2.70793e-07
1.54921e-07
-3.57733e-07
1.81464e-07
-4.52647e-07
1.99866e-07
-5.54133e-07
2.12917e-07
-6.60615e-07
2.22344e-07
-7.70734e-07
2.29133e-07
-8.83385e-07
2.33868e-07
-9.97677e-07
2.36934e-07
-1.11289e-06
2.38617e-07
-1.22841e-06
2.39141e-07
-1.34375e-06
2.38695e-07
-1.45849e-06
2.37437e-07
-1.5723e-06
2.35506e-07
-1.68491e-06
2.33021e-07
-1.79608e-06
2.30087e-07
-1.90564e-06
2.26796e-07
-2.01347e-06
2.23226e-07
-2.11944e-06
2.19446e-07
-2.2235e-06
2.15515e-07
-2.32559e-06
2.11483e-07
-2.42569e-06
2.07393e-07
-2.52378e-06
2.0328e-07
-2.61986e-06
1.99174e-07
-2.71396e-06
1.95099e-07
-2.80609e-06
1.91072e-07
-2.89628e-06
1.8711e-07
-2.98457e-06
1.83221e-07
-3.07099e-06
1.79415e-07
-3.15558e-06
1.75694e-07
-3.2384e-06
1.72061e-07
-3.31946e-06
1.68515e-07
-3.39882e-06
1.65053e-07
-3.4765e-06
1.6167e-07
-3.55254e-06
1.58361e-07
-3.62697e-06
1.55117e-07
-3.69982e-06
1.5193e-07
-3.77109e-06
1.48789e-07
-3.84081e-06
1.45684e-07
-3.90897e-06
1.42601e-07
-3.97559e-06
1.39529e-07
-4.04066e-06
1.36453e-07
-4.10416e-06
1.33357e-07
-4.16606e-06
1.30226e-07
-4.22634e-06
1.27043e-07
-4.28497e-06
1.23789e-07
-4.34188e-06
1.20446e-07
-4.39703e-06
1.16993e-07
-4.45034e-06
1.13409e-07
-4.50174e-06
1.09673e-07
-4.55112e-06
1.05759e-07
-4.5984e-06
1.01643e-07
-4.64344e-06
9.72978e-08
-4.68613e-06
9.26951e-08
-4.72632e-06
8.78047e-08
-4.76384e-06
8.25943e-08
-4.79852e-06
7.70292e-08
-4.83017e-06
7.10726e-08
-4.85857e-06
6.46852e-08
-4.88351e-06
5.78259e-08
-4.90471e-06
5.04506e-08
-4.92192e-06
4.25118e-08
-4.93484e-06
3.39554e-08
-4.94314e-06
2.4721e-08
-4.94647e-06
1.47438e-08
-4.94444e-06
3.94935e-09
-4.93669e-06
-7.67704e-09
-4.92285e-06
-2.01278e-08
-4.90249e-06
-3.34494e-08
-4.87517e-06
-4.76824e-08
-4.84046e-06
-6.28475e-08
-4.79792e-06
-7.89466e-08
-4.74711e-06
-9.59604e-08
-4.68762e-06
-1.13844e-07
-4.61908e-06
-1.32522e-07
-4.54117e-06
-1.51881e-07
-4.45364e-06
-1.71769e-07
-4.35634e-06
-1.91991e-07
-4.24922e-06
-2.12306e-07
-4.13238e-06
-2.32436e-07
-4.00606e-06
-2.52066e-07
-3.87066e-06
-2.70861e-07
-3.72677e-06
-2.88477e-07
-3.57511e-06
-3.04578e-07
-3.41657e-06
-3.18857e-07
-3.25216e-06
-3.31057e-07
-3.08299e-06
-3.40979e-07
-2.91023e-06
-3.48498e-07
-2.73506e-06
-3.53567e-07
-2.55867e-06
-3.56213e-07
-2.38218e-06
-3.56535e-07
-2.20665e-06
-3.54689e-07
-2.03303e-06
-3.50876e-07
-1.86217e-06
-3.45332e-07
-1.69477e-06
-3.38308e-07
-1.53145e-06
-3.30057e-07
-1.37266e-06
-3.20838e-07
-1.21875e-06
-3.10889e-07
-1.06997e-06
-3.00429e-07
-9.26473e-07
-2.89662e-07
-7.88324e-07
-2.78737e-07
-6.55509e-07
-2.67835e-07
-5.27947e-07
-2.57089e-07
-4.05519e-07
-2.46598e-07
-2.88031e-07
-2.36472e-07
-1.75304e-07
-2.26749e-07
-6.69319e-08
-2.17687e-07
3.71235e-08
-2.08875e-07
1.36304e-07
-2.0009e-07
2.30614e-07
-1.9171e-07
3.20499e-07
-1.83078e-07
4.06169e-07
-1.74113e-07
4.87916e-07
-1.65572e-07
5.65944e-07
-1.57549e-07
6.40452e-07
-1.5007e-07
7.11638e-07
-1.431e-07
7.79697e-07
-1.36592e-07
8.44813e-07
-1.30504e-07
9.07153e-07
-1.24795e-07
9.66873e-07
-1.19427e-07
1.02412e-06
-1.14368e-07
1.07903e-06
-1.09596e-07
1.13172e-06
-1.0509e-07
1.18232e-06
-1.00828e-07
1.23092e-06
-9.67874e-08
1.27764e-06
-9.29521e-08
1.32256e-06
-8.93123e-08
1.36578e-06
-8.58573e-08
1.40738e-06
-8.25733e-08
1.44743e-06
-7.94466e-08
1.48601e-06
-7.6468e-08
1.52319e-06
-7.36317e-08
1.55903e-06
-7.09311e-08
1.5936e-06
-6.83569e-08
1.62695e-06
-6.59002e-08
1.65914e-06
-6.35554e-08
1.69023e-06
-6.13189e-08
1.72026e-06
-5.9187e-08
1.74928e-06
-5.71542e-08
1.77735e-06
-5.52141e-08
1.80449e-06
-5.33616e-08
1.83077e-06
-5.15936e-08
1.85621e-06
-4.9908e-08
1.88085e-06
-4.83018e-08
1.90473e-06
-4.67705e-08
1.92789e-06
-4.53097e-08
1.95037e-06
-4.39164e-08
1.97218e-06
-4.25883e-08
1.99337e-06
-4.13239e-08
2.01396e-06
-4.0121e-08
2.03398e-06
-3.89763e-08
2.05347e-06
-3.78868e-08
2.07245e-06
-3.68508e-08
2.09094e-06
-3.5867e-08
2.10896e-06
-3.49351e-08
2.12655e-06
-3.40536e-08
2.14372e-06
-3.3217e-08
2.1605e-06
-3.24193e-08
2.1769e-06
-3.16566e-08
2.19295e-06
-3.0925e-08
2.20865e-06
-3.02221e-08
2.22402e-06
-2.95436e-08
2.23906e-06
-2.88774e-08
2.25377e-06
-2.82094e-08
2.26815e-06
-2.75232e-08
2.28218e-06
-2.67928e-08
2.29581e-06
-2.59848e-08
2.30899e-06
-2.505e-08
2.32162e-06
-2.39129e-08
2.33357e-06
-2.24697e-08
2.3446e-06
-2.05567e-08
2.35436e-06
-1.78989e-08
2.36229e-06
-1.40286e-08
2.36741e-06
-8.12667e-09
2.36799e-06
1.37858e-09
2.36098e-06
1.84788e-08
2.34068e-06
5.26687e-08
1.30297e-07
2.30758e-06
-9.29834e-08
8.69052e-08
-1.83033e-07
1.56661e-07
-2.70645e-07
2.04868e-07
-3.58096e-07
2.42376e-07
-4.479e-07
2.71269e-07
-5.41156e-07
2.93124e-07
-6.37764e-07
3.09526e-07
-7.3715e-07
3.2173e-07
-8.38643e-07
3.30626e-07
-9.41612e-07
3.36836e-07
-1.0455e-06
3.40817e-07
-1.14981e-06
3.42928e-07
-1.25413e-06
3.43462e-07
-1.3581e-06
3.42668e-07
-1.46143e-06
3.40763e-07
-1.56386e-06
3.37933e-07
-1.66518e-06
3.34343e-07
-1.76523e-06
3.30135e-07
-1.86387e-06
3.25436e-07
-1.96099e-06
3.20353e-07
-2.05653e-06
3.14981e-07
-2.15041e-06
3.094e-07
-2.24261e-06
3.03678e-07
-2.33309e-06
2.97875e-07
-2.42185e-06
2.92039e-07
-2.50888e-06
2.86209e-07
-2.5942e-06
2.80418e-07
-2.67782e-06
2.74691e-07
-2.75975e-06
2.69048e-07
-2.84003e-06
2.63504e-07
-2.91868e-06
2.58068e-07
-2.99573e-06
2.52746e-07
-3.07121e-06
2.4754e-07
-3.14514e-06
2.42449e-07
-3.21756e-06
2.37469e-07
-3.28848e-06
2.32592e-07
-3.35793e-06
2.27811e-07
-3.42592e-06
2.23114e-07
-3.49248e-06
2.18488e-07
-3.55761e-06
2.1392e-07
-3.62132e-06
2.09391e-07
-3.68361e-06
2.04886e-07
-3.74446e-06
2.00384e-07
-3.80387e-06
1.95866e-07
-3.86183e-06
1.91309e-07
-3.91829e-06
1.8669e-07
-3.97323e-06
1.81984e-07
-4.02661e-06
1.77164e-07
-4.07837e-06
1.72204e-07
-4.12845e-06
1.67073e-07
-4.17678e-06
1.6174e-07
-4.22328e-06
1.56172e-07
-4.26785e-06
1.50335e-07
-4.3104e-06
1.44192e-07
-4.35081e-06
1.37703e-07
-4.38894e-06
1.30827e-07
-4.42466e-06
1.2352e-07
-4.4578e-06
1.15736e-07
-4.4882e-06
1.07424e-07
-4.51566e-06
9.85312e-08
-4.53998e-06
8.90028e-08
-4.56093e-06
7.87794e-08
-4.57828e-06
6.77984e-08
-4.59176e-06
5.59931e-08
-4.60109e-06
4.32908e-08
-4.60598e-06
2.96126e-08
-4.60611e-06
1.48773e-08
-4.60116e-06
-9.96733e-10
-4.59079e-06
-1.80493e-08
-4.5746e-06
-3.63102e-08
-4.55221e-06
-5.58407e-08
-4.5232e-06
-7.66891e-08
-4.48716e-06
-9.88834e-08
-4.44368e-06
-1.22427e-07
-4.39234e-06
-1.47294e-07
-4.33277e-06
-1.73422e-07
-4.26459e-06
-2.00702e-07
-4.1875e-06
-2.28975e-07
-4.10125e-06
-2.58023e-07
-4.00568e-06
-2.87562e-07
-3.90074e-06
-3.17246e-07
-3.78651e-06
-3.46666e-07
-3.66322e-06
-3.75363e-07
-3.53124e-06
-4.02841e-07
-3.39113e-06
-4.28594e-07
-3.24358e-06
-4.52124e-07
-3.08946e-06
-4.72978e-07
-2.92975e-06
-4.90768e-07
-2.76552e-06
-5.05205e-07
-2.59791e-06
-5.16105e-07
-2.42807e-06
-5.23397e-07
-2.25716e-06
-5.27127e-07
-2.08625e-06
-5.27444e-07
-1.91635e-06
-5.24581e-07
-1.74839e-06
-5.18838e-07
-1.58316e-06
-5.10565e-07
-1.42133e-06
-5.00134e-07
-1.26347e-06
-4.87917e-07
-1.11001e-06
-4.74298e-07
-9.61275e-07
-4.59629e-07
-8.17492e-07
-4.44213e-07
-6.78782e-07
-4.2837e-07
-5.45203e-07
-4.12318e-07
-4.16741e-07
-3.96304e-07
-2.9329e-07
-3.80544e-07
-1.74766e-07
-3.65119e-07
-6.08843e-08
-3.50354e-07
4.8307e-08
-3.35948e-07
1.52477e-07
-3.21859e-07
2.51766e-07
-3.08155e-07
3.46474e-07
-2.94794e-07
4.36678e-07
-2.81922e-07
5.22793e-07
-2.69199e-07
6.05266e-07
-2.56583e-07
6.84207e-07
-2.44508e-07
7.59746e-07
-2.33089e-07
8.32019e-07
-2.22346e-07
9.01175e-07
-2.12256e-07
9.67369e-07
-2.02785e-07
1.03076e-06
-1.93889e-07
1.09148e-06
-1.85522e-07
1.1497e-06
-1.77637e-07
1.20553e-06
-1.70197e-07
1.2591e-06
-1.63172e-07
1.31054e-06
-1.56529e-07
1.35995e-06
-1.50235e-07
1.40743e-06
-1.44267e-07
1.45308e-06
-1.38605e-07
1.497e-06
-1.33231e-07
1.53927e-06
-1.28124e-07
1.57996e-06
-1.23266e-07
1.61915e-06
-1.1864e-07
1.65693e-06
-1.14236e-07
1.69334e-06
-1.10043e-07
1.72845e-06
-1.06048e-07
1.76233e-06
-1.02238e-07
1.79504e-06
-9.86022e-08
1.82662e-06
-9.51344e-08
1.85712e-06
-9.18277e-08
1.88661e-06
-8.86742e-08
1.91512e-06
-8.56648e-08
1.94269e-06
-8.27919e-08
1.96938e-06
-8.005e-08
1.99523e-06
-7.74344e-08
2.02026e-06
-7.49401e-08
2.04452e-06
-7.25615e-08
2.06805e-06
-7.02929e-08
2.09087e-06
-6.81298e-08
2.11303e-06
-6.60683e-08
2.13456e-06
-6.41046e-08
2.15547e-06
-6.22352e-08
2.17581e-06
-6.04564e-08
2.19559e-06
-5.87635e-08
2.21486e-06
-5.71527e-08
2.23363e-06
-5.56217e-08
2.25193e-06
-5.41687e-08
2.26978e-06
-5.27908e-08
2.28721e-06
-5.14844e-08
2.30424e-06
-5.0244e-08
2.32088e-06
-4.90639e-08
2.33717e-06
-4.79398e-08
2.35311e-06
-4.68654e-08
2.36872e-06
-4.5834e-08
2.38401e-06
-4.48367e-08
2.39899e-06
-4.38578e-08
2.41365e-06
-4.28781e-08
2.428e-06
-4.18737e-08
2.44201e-06
-4.08077e-08
2.45566e-06
-3.96303e-08
2.46889e-06
-3.82738e-08
2.4816e-06
-3.6633e-08
2.49368e-06
-3.45539e-08
2.50493e-06
-3.18049e-08
2.51505e-06
-2.80117e-08
2.52356e-06
-2.25457e-08
2.52975e-06
-1.43115e-08
2.53247e-06
-1.3438e-09
2.53023e-06
2.07118e-08
2.52203e-06
6.08759e-08
1.37673e-07
2.51465e-06
-1.00804e-07
1.87715e-07
-1.99303e-07
2.55165e-07
-2.93592e-07
2.99162e-07
-3.85248e-07
3.34035e-07
-4.76092e-07
3.62114e-07
-5.67255e-07
3.84288e-07
-6.59168e-07
4.0144e-07
-7.51846e-07
4.1441e-07
-8.45116e-07
4.23898e-07
-9.38743e-07
4.30464e-07
-1.03248e-06
4.34554e-07
-1.12609e-06
4.36536e-07
-1.21934e-06
4.36722e-07
-1.31206e-06
4.35383e-07
-1.40405e-06
4.32758e-07
-1.49517e-06
4.29057e-07
-1.5853e-06
4.24467e-07
-1.67431e-06
4.19152e-07
-1.76213e-06
4.13256e-07
-1.84868e-06
4.06905e-07
-1.9339e-06
4.00208e-07
-2.01776e-06
3.9326e-07
-2.10023e-06
3.86142e-07
-2.18128e-06
3.78923e-07
-2.26089e-06
3.71659e-07
-2.33908e-06
3.64398e-07
-2.41584e-06
3.57178e-07
-2.49118e-06
3.50031e-07
-2.56511e-06
3.4298e-07
-2.63765e-06
3.36042e-07
-2.70881e-06
3.29229e-07
-2.77861e-06
3.22548e-07
-2.84707e-06
3.16001e-07
-2.91421e-06
3.09586e-07
-2.98004e-06
3.033e-07
-3.04458e-06
2.97133e-07
-3.10784e-06
2.91074e-07
-3.16983e-06
2.85109e-07
-3.23057e-06
2.79223e-07
-3.29005e-06
2.73397e-07
-3.34827e-06
2.67611e-07
-3.40522e-06
2.61842e-07
-3.4609e-06
2.56065e-07
-3.51529e-06
2.50255e-07
-3.56837e-06
2.44383e-07
-3.6201e-06
2.38419e-07
-3.67044e-06
2.32332e-07
-3.71937e-06
2.26087e-07
-3.76681e-06
2.19647e-07
-3.81271e-06
2.12976e-07
-3.857e-06
2.06032e-07
-3.8996e-06
1.98772e-07
-3.94042e-06
1.91151e-07
-3.97935e-06
1.83122e-07
-4.01628e-06
1.74632e-07
-4.05107e-06
1.65628e-07
-4.08361e-06
1.56052e-07
-4.11371e-06
1.45844e-07
-4.14123e-06
1.3494e-07
-4.16597e-06
1.23272e-07
-4.18774e-06
1.10768e-07
-4.20631e-06
9.73523e-08
-4.22146e-06
8.29462e-08
-4.23293e-06
6.74654e-08
-4.24046e-06
5.08205e-08
-4.24377e-06
3.29172e-08
-4.24255e-06
1.36603e-08
-4.23651e-06
-7.0391e-09
-4.22531e-06
-2.92492e-08
-4.20859e-06
-5.30357e-08
-4.18596e-06
-7.8471e-08
-4.15703e-06
-1.05614e-07
-4.12141e-06
-1.34504e-07
-4.07869e-06
-1.65147e-07
-4.02847e-06
-1.97515e-07
-3.97036e-06
-2.31533e-07
-3.904e-06
-2.67067e-07
-3.82905e-06
-3.03918e-07
-3.74527e-06
-3.41805e-07
-3.65247e-06
-3.80366e-07
-3.55056e-06
-4.19149e-07
-3.43961e-06
-4.57619e-07
-3.3198e-06
-4.95169e-07
-3.1915e-06
-5.31143e-07
-3.05523e-06
-5.64863e-07
-2.91169e-06
-5.95663e-07
-2.76174e-06
-6.22934e-07
-2.60635e-06
-6.46157e-07
-2.44661e-06
-6.64945e-07
-2.28365e-06
-6.79057e-07
-2.11865e-06
-6.88406e-07
-1.95272e-06
-6.93056e-07
-1.78694e-06
-6.9322e-07
-1.6223e-06
-6.89216e-07
-1.4597e-06
-6.81442e-07
-1.29989e-06
-6.70378e-07
-1.1435e-06
-6.56518e-07
-9.91078e-07
-6.4034e-07
-8.43005e-07
-6.22364e-07
-6.99565e-07
-6.03066e-07
-5.60971e-07
-5.82812e-07
-4.27311e-07
-5.62032e-07
-2.98602e-07
-5.41017e-07
-1.74863e-07
-5.20035e-07
-5.58783e-08
-4.99538e-07
5.82489e-08
-4.79257e-07
1.67262e-07
-4.59362e-07
2.71307e-07
-4.39984e-07
3.70589e-07
-4.21148e-07
4.65312e-07
-4.02893e-07
5.55728e-07
-3.85211e-07
6.41995e-07
-3.68172e-07
7.24441e-07
-3.51636e-07
8.03428e-07