/*--------------------------------*- C++ -*----------------------------------*\
| =========                 |                                                 |
| \\      /  F ield         | OpenFOAM: The Open Source CFD Toolbox           |
|  \\    /   O peration     | Version:  2.2.x                                 |
|   \\  /    A nd           | Web:      www.OpenFOAM.org                      |
|    \\/     M anipulation  |                                                 |
\*---------------------------------------------------------------------------*/
FoamFile
{
    version     2.0;
    format      ascii;
    class       volVectorField;
    location    "200";
    object      U;
}
// * * * * * * * * * * * * * * * * * * * * * * * * * * * * * * * * * * * * * //

dimensions      [0 1 -1 0 0 0 0];

internalField   nonuniform List<vector> 
12225
(
(9.83962 -1.2384 0)
(9.73823 -0.731439 0)
(9.53575 -0.467242 0)
(9.32091 -0.307263 0)
(9.12074 -0.205753 0)
(8.93542 -0.139324 0)
(8.7632 -0.0946031 0)
(8.60326 -0.0638275 0)
(8.45478 -0.0422916 0)
(8.31677 -0.0270148 0)
(8.18819 -0.0160499 0)
(8.06807 -0.00809471 0)
(7.95551 -0.00225676 0)
(7.84957 0.00209648 0)
(7.74923 0.0054562 0)
(7.65313 0.0084169 0)
(7.55461 0.0126976 0)
(7.47046 -0.0136112 0)
(10.0334 0.447471 0)
(10.0221 0.427112 0)
(9.98711 0.340515 0)
(9.94065 0.271368 0)
(9.89288 0.218321 0)
(9.84306 0.177883 0)
(9.79044 0.14751 0)
(9.73566 0.124739 0)
(9.67956 0.107557 0)
(9.62272 0.0944854 0)
(9.56554 0.0844691 0)
(9.50833 0.076758 0)
(9.45123 0.0708287 0)
(9.39428 0.0663428 0)
(9.33732 0.0631614 0)
(9.28005 0.0615899 0)
(9.22328 0.0632225 0)
(9.17022 0.08151 0)
(9.99281 0.0269278 0)
(10.0018 -0.00843616 0)
(10.0167 -0.0270505 0)
(10.0225 -0.0216946 0)
(10.0244 -0.0100764 0)
(10.023 0.0015361 0)
(10.0184 0.0119619 0)
(10.0109 0.0209067 0)
(10.0012 0.0283541 0)
(9.98969 0.0344695 0)
(9.97661 0.0394922 0)
(9.96211 0.043673 0)
(9.94628 0.0472605 0)
(9.92914 0.0505204 0)
(9.91064 0.0537953 0)
(9.89082 0.0576444 0)
(9.87054 0.0627607 0)
(9.84914 0.0671067 0)
(9.99988 0.0198872 0)
(10.0119 0.0438171 0)
(10.0296 0.0564093 0)
(10.039 0.0663158 0)
(10.0449 0.0720295 0)
(10.0494 0.074162 0)
(10.0523 0.0744083 0)
(10.0538 0.0738171 0)
(10.0541 0.072902 0)
(10.0535 0.0719471 0)
(10.0519 0.0711312 0)
(10.0494 0.0705778 0)
(10.0459 0.0703937 0)
(10.0415 0.0707083 0)
(10.0361 0.0717171 0)
(10.0299 0.0737133 0)
(10.0235 0.0769099 0)
(10.0165 0.0802562 0)
(10.0022 0.018964 0)
(10.0139 0.0414274 0)
(10.029 0.0477998 0)
(10.0382 0.0505814 0)
(10.0451 0.052441 0)
(10.0512 0.0534945 0)
(10.0562 0.0542776 0)
(10.0602 0.0551093 0)
(10.0633 0.0560582 0)
(10.0655 0.0571324 0)
(10.067 0.0583521 0)
(10.0677 0.05976 0)
(10.0677 0.0614278 0)
(10.0668 0.0634682 0)
(10.0653 0.066044 0)
(10.0632 0.0693462 0)
(10.0608 0.0734466 0)
(10.0578 0.0777137 0)
(10.0024 0.0192959 0)
(10.0126 0.0377892 0)
(10.0257 0.0444589 0)
(10.0351 0.048273 0)
(10.0425 0.0515499 0)
(10.0491 0.0540002 0)
(10.0547 0.0558392 0)
(10.0594 0.0573664 0)
(10.0633 0.058738 0)
(10.0664 0.0600509 0)
(10.0689 0.0613981 0)
(10.0706 0.0628778 0)
(10.0718 0.0645993 0)
(10.0722 0.0666898 0)
(10.0722 0.0692954 0)
(10.0716 0.0725537 0)
(10.0708 0.0765142 0)
(10.0697 0.0809099 0)
(10.0021 0.0170939 0)
(10.0106 0.0327126 0)
(10.0221 0.0402421 0)
(10.0313 0.0448214 0)
(10.0387 0.0484428 0)
(10.0454 0.0511176 0)
(10.0512 0.0531065 0)
(10.0562 0.0547472 0)
(10.0605 0.0562426 0)
(10.064 0.0577156 0)
(10.0669 0.0592683 0)
(10.0693 0.0609985 0)
(10.071 0.0630072 0)
(10.0722 0.0654033 0)
(10.0729 0.0683004 0)
(10.0733 0.0717951 0)
(10.0734 0.0759268 0)
(10.0734 0.080566 0)
(10.0018 0.0152313 0)
(10.009 0.0292374 0)
(10.0191 0.0371642 0)
(10.0278 0.0421141 0)
(10.0352 0.0459005 0)
(10.0418 0.0487713 0)
(10.0477 0.0509906 0)
(10.0528 0.0528662 0)
(10.0572 0.0545968 0)
(10.061 0.0563079 0)
(10.0642 0.0581019 0)
(10.0668 0.0600753 0)
(10.0689 0.0623239 0)
(10.0706 0.0649454 0)
(10.0718 0.0680349 0)
(10.0728 0.0716703 0)
(10.0735 0.0758921 0)
(10.0742 0.0806308 0)
(10.0016 0.0137295 0)
(10.0078 0.0264421 0)
(10.0167 0.0343529 0)
(10.0249 0.0394927 0)
(10.032 0.0434094 0)
(10.0385 0.046444 0)
(10.0443 0.0488538 0)
(10.0495 0.0509191 0)
(10.054 0.052834 0)
(10.058 0.0547278 0)
(10.0614 0.0567055 0)
(10.0643 0.0588629 0)
(10.0667 0.0612913 0)
(10.0687 0.0640786 0)
(10.0704 0.0673059 0)
(10.0718 0.0710376 0)
(10.073 0.0753094 0)
(10.0742 0.0800691 0)
(10.0014 0.0122657 0)
(10.0066 0.0236721 0)
(10.0143 0.0313627 0)
(10.0219 0.0366033 0)
(10.0287 0.040624 0)
(10.035 0.043804 0)
(10.0407 0.0463925 0)
(10.0459 0.0486426 0)
(10.0505 0.0507419 0)
(10.0546 0.052821 0)
(10.0582 0.0549848 0)
(10.0614 0.0573263 0)
(10.0641 0.0599301 0)
(10.0665 0.0628735 0)
(10.0686 0.0662241 0)
(10.0705 0.0700338 0)
(10.0722 0.0743303 0)
(10.074 0.0790664 0)
(10.0012 0.0108158 0)
(10.0056 0.0209245 0)
(10.0122 0.0282413 0)
(10.019 0.033473 0)
(10.0254 0.0375381 0)
(10.0314 0.0408189 0)
(10.037 0.0435539 0)
(10.0421 0.0459685 0)
(10.0468 0.0482386 0)
(10.051 0.0504921 0)
(10.0548 0.0528307 0)
(10.0582 0.0553416 0)
(10.0613 0.0581007 0)
(10.0641 0.0611741 0)
(10.0666 0.0646162 0)
(10.069 0.0684663 0)
(10.0713 0.0727425 0)
(10.0737 0.077394 0)
(10.001 0.00939064 0)
(10.0047 0.0182331 0)
(10.0103 0.0250299 0)
(10.0164 0.0301233 0)
(10.0223 0.0341562 0)
(10.028 0.0374798 0)
(10.0334 0.0403159 0)
(10.0385 0.0428611 0)
(10.0432 0.0452746 0)
(10.0475 0.0476772 0)
(10.0515 0.0501639 0)
(10.0551 0.0528135 0)
(10.0585 0.0556921 0)
(10.0617 0.0588538 0)
(10.0646 0.06234 0)
(10.0675 0.066178 0)
(10.0704 0.0703758 0)
(10.0733 0.0748767 0)
(10.0008 0.00800231 0)
(10.0039 0.0156097 0)
(10.0086 0.0217522 0)
(10.0141 0.0265664 0)
(10.0195 0.0304727 0)
(10.0249 0.0337645 0)
(10.0301 0.0366389 0)
(10.0351 0.0392626 0)
(10.0398 0.0417744 0)
(10.0442 0.0442828 0)
(10.0484 0.0468726 0)
(10.0523 0.0496123 0)
(10.056 0.0525567 0)
(10.0596 0.0557475 0)
(10.063 0.0592142 0)
(10.0664 0.0629727 0)
(10.0697 0.0670215 0)
(10.0733 0.0712998 0)
(10.0007 0.00665123 0)
(10.0033 0.0130427 0)
(10.0073 0.0184143 0)
(10.0121 0.0228041 0)
(10.0172 0.0264696 0)
(10.0223 0.0296346 0)
(10.0273 0.0324634 0)
(10.0322 0.0350923 0)
(10.0369 0.0376361 0)
(10.0415 0.0401865 0)
(10.0458 0.0428152 0)
(10.05 0.0455779 0)
(10.054 0.048517 0)
(10.058 0.0516623 0)
(10.0618 0.0550322 0)
(10.0657 0.0586327 0)
(10.0695 0.062455 0)
(10.0736 0.0664371 0)
(10.0006 0.00532374 0)
(10.0028 0.010498 0)
(10.0063 0.0149932 0)
(10.0106 0.0188118 0)
(10.0153 0.0221033 0)
(10.0201 0.025024 0)
(10.025 0.0276998 0)
(10.0299 0.0302359 0)
(10.0347 0.032721 0)
(10.0394 0.0352265 0)
(10.0439 0.0378079 0)
(10.0484 0.0405068 0)
(10.0528 0.0433526 0)
(10.0571 0.0463639 0)
(10.0614 0.049549 0)
(10.0657 0.0529063 0)
(10.07 0.0564219 0)
(10.0745 0.0600359 0)
(10.0005 0.00398891 0)
(10.0024 0.00791204 0)
(10.0056 0.0114224 0)
(10.0095 0.0145188 0)
(10.014 0.0172854 0)
(10.0186 0.0198214 0)
(10.0235 0.0222133 0)
(10.0283 0.0245342 0)
(10.0332 0.0268455 0)
(10.0381 0.0291965 0)
(10.0429 0.0316244 0)
(10.0476 0.0341558 0)
(10.0524 0.0368074 0)
(10.057 0.039587 0)
(10.0617 0.0424946 0)
(10.0664 0.0455229 0)
(10.0712 0.0486551 0)
(10.0761 0.0518365 0)
(10.0005 0.00259502 0)
(10.0022 0.00518522 0)
(10.0052 0.00758037 0)
(10.0089 0.00979098 0)
(10.0132 0.0118634 0)
(10.0179 0.013852 0)
(10.0227 0.0158053 0)
(10.0277 0.0177647 0)
(10.0327 0.0197642 0)
(10.0378 0.0218299 0)
(10.0428 0.0239803 0)
(10.0479 0.0262262 0)
(10.0529 0.028572 0)
(10.058 0.0310159 0)
(10.063 0.0335511 0)
(10.0681 0.0361659 0)
(10.0732 0.0388425 0)
(10.0784 0.0415333 0)
(10.0005 0.00116069 0)
(10.0022 0.00235994 0)
(10.0051 0.00355052 0)
(10.0089 0.0047613 0)
(10.0132 0.00601591 0)
(10.0179 0.00733199 0)
(10.0229 0.00872369 0)
(10.028 0.0102025 0)
(10.0333 0.0117768 0)
(10.0386 0.013451 0)
(10.0439 0.0152257 0)
(10.0493 0.0170978 0)
(10.0546 0.0190607 0)
(10.06 0.021105 0)
(10.0653 0.0232186 0)
(10.0707 0.025387 0)
(10.076 0.0275926 0)
(10.0815 0.0297952 0)
(10.0005 -0.000222079 0)
(10.0023 -0.000377792 0)
(10.0053 -0.000376521 0)
(10.0093 -0.000162868 0)
(10.0138 0.000267901 0)
(10.0187 0.000897493 0)
(10.0239 0.00170749 0)
(10.0293 0.00268265 0)
(10.0348 0.00380838 0)
(10.0404 0.00506953 0)
(10.046 0.00645142 0)
(10.0516 0.00793927 0)
(10.0572 0.00951792 0)
(10.0628 0.0111718 0)
(10.0684 0.0128851 0)
(10.074 0.0146416 0)
(10.0795 0.0164238 0)
(10.0852 0.018197 0)
(10.0005 -0.00152988 0)
(10.0025 -0.00298291 0)
(10.0058 -0.00411391 0)
(10.01 -0.0048268 0)
(10.0149 -0.00514821 0)
(10.0201 -0.00514253 0)
(10.0256 -0.00486077 0)
(10.0313 -0.00434227 0)
(10.037 -0.00362245 0)
(10.0428 -0.00273246 0)
(10.0487 -0.00169964 0)
(10.0545 -0.000548001 0)
(10.0603 0.000700684 0)
(10.0661 0.00202622 0)
(10.0718 0.00340974 0)
(10.0776 0.00483338 0)
(10.0832 0.00627916 0)
(10.089 0.00771693 0)
(10.0006 -0.00279057 0)
(10.0027 -0.00553685 0)
(10.0064 -0.0077695 0)
(10.0111 -0.00933011 0)
(10.0163 -0.0103176 0)
(10.0219 -0.0108624 0)
(10.0277 -0.0110455 0)
(10.0337 -0.0109278 0)
(10.0397 -0.0105649 0)
(10.0457 -0.0100038 0)
(10.0518 -0.00928186 0)
(10.0578 -0.00843006 0)
(10.0638 -0.00747491 0)
(10.0698 -0.00643993 0)
(10.0757 -0.00534642 0)
(10.0815 -0.00421381 0)
(10.0872 -0.0030607 0)
(10.0931 -0.00191598 0)
(10.0006 -0.00399664 0)
(10.0029 -0.00809518 0)
(10.0071 -0.0114146 0)
(10.0124 -0.0137147 0)
(10.0181 -0.0152547 0)
(10.0241 -0.0162528 0)
(10.0302 -0.0168116 0)
(10.0364 -0.0170118 0)
(10.0427 -0.0169286 0)
(10.049 -0.016622 0)
(10.0552 -0.0161373 0)
(10.0614 -0.015511 0)
(10.0675 -0.0147736 0)
(10.0736 -0.0139517 0)
(10.0796 -0.0130688 0)
(10.0855 -0.0121462 0)
(10.0913 -0.0112033 0)
(10.0972 -0.0102658 0)
(10.0005 -0.00510837 0)
(10.0031 -0.0107213 0)
(10.008 -0.0151291 0)
(10.0139 -0.0180647 0)
(10.0201 -0.0200837 0)
(10.0265 -0.0214812 0)
(10.0329 -0.0223684 0)
(10.0394 -0.0228536 0)
(10.0459 -0.0230344 0)
(10.0523 -0.0229787 0)
(10.0587 -0.022734 0)
(10.065 -0.0223375 0)
(10.0712 -0.0218207 0)
(10.0774 -0.0212106 0)
(10.0834 -0.0205319 0)
(10.0893 -0.019808 0)
(10.0951 -0.0190627 0)
(10.101 -0.0183291 0)
(10.0003 -0.00604687 0)
(10.0031 -0.0134559 0)
(10.0088 -0.018738 0)
(10.0155 -0.0220234 0)
(10.0222 -0.0243635 0)
(10.0288 -0.0260152 0)
(10.0355 -0.0270571 0)
(10.0422 -0.0276428 0)
(10.0488 -0.0279066 0)
(10.0553 -0.0279322 0)
(10.0618 -0.027774 0)
(10.0681 -0.027473 0)
(10.0743 -0.0270616 0)
(10.0805 -0.0265656 0)
(10.0865 -0.0260076 0)
(10.0924 -0.0254089 0)
(10.0981 -0.0247907 0)
(10.1039 -0.0241805 0)
(9.9999 -0.00676375 0)
(10.0028 -0.0171848 0)
(10.0097 -0.02324 0)
(10.0171 -0.026645 0)
(10.024 -0.0293791 0)
(10.0309 -0.0315152 0)
(10.0378 -0.0330057 0)
(10.0445 -0.0339908 0)
(10.0512 -0.0345968 0)
(10.0577 -0.0349017 0)
(10.0641 -0.0349637 0)
(10.0703 -0.0348318 0)
(10.0765 -0.0345464 0)
(10.0825 -0.0341404 0)
(10.0885 -0.0336416 0)
(10.0942 -0.0330771 0)
(10.0999 -0.0324803 0)
(10.1056 -0.031909 0)
(9.99849 -0.00466749 0)
(10.0011 -0.0195574 0)
(10.0098 -0.0259822 0)
(10.0177 -0.0282821 0)
(10.0245 -0.0298007 0)
(10.0314 -0.0308524 0)
(10.0383 -0.0315751 0)
(10.045 -0.0321506 0)
(10.0516 -0.0326402 0)
(10.058 -0.0330415 0)
(10.0643 -0.0333477 0)
(10.0704 -0.0335574 0)
(10.0764 -0.0336718 0)
(10.0823 -0.033693 0)
(10.088 -0.0336245 0)
(10.0935 -0.0334722 0)
(10.0988 -0.0332505 0)
(10.104 -0.032996 0)
(9.99487 -0.00293637 0)
(9.99623 -0.0251513 0)
(10.0082 -0.0386526 0)
(10.0174 -0.0476202 0)
(10.0244 -0.053213 0)
(10.031 -0.0558564 0)
(10.0373 -0.0566515 0)
(10.0433 -0.0564506 0)
(10.049 -0.0556997 0)
(10.0546 -0.054639 0)
(10.06 -0.0534161 0)
(10.0652 -0.0521228 0)
(10.0703 -0.0508118 0)
(10.0752 -0.0495094 0)
(10.08 -0.0482239 0)
(10.0847 -0.0469503 0)
(10.0891 -0.0456856 0)
(10.0935 -0.0444465 0)
(9.98526 0.00593362 0)
(9.98226 0.0252338 0)
(9.99504 0.0370815 0)
(10.0053 0.032921 0)
(10.0135 0.0233108 0)
(10.0205 0.0135251 0)
(10.0262 0.00461581 0)
(10.0306 -0.00322236 0)
(10.0342 -0.00992082 0)
(10.037 -0.0155225 0)
(10.0393 -0.0201419 0)
(10.0412 -0.0239122 0)
(10.0427 -0.0269586 0)
(10.0439 -0.0293893 0)
(10.0448 -0.0312889 0)
(10.0456 -0.0327103 0)
(10.046 -0.0336714 0)
(10.046 -0.0340727 0)
(10.0137 -0.317241 0)
(10.0105 -0.32612 0)
(9.99988 -0.271209 0)
(9.98454 -0.224464 0)
(9.97104 -0.187624 0)
(9.95826 -0.158173 0)
(9.94454 -0.13497 0)
(9.92961 -0.11682 0)
(9.91365 -0.102551 0)
(9.8969 -0.0912325 0)
(9.87953 -0.0821699 0)
(9.86173 -0.0748431 0)
(9.84367 -0.0688586 0)
(9.82553 -0.0639148 0)
(9.80746 -0.0597725 0)
(9.7896 -0.0562216 0)
(9.77211 -0.0530342 0)
(9.75447 -0.0495916 0)
(9.9542 0.913107 0)
(9.95445 0.561054 0)
(9.8672 0.375505 0)
(9.7546 0.258657 0)
(9.64152 0.180666 0)
(9.5316 0.127158 0)
(9.4251 0.0894412 0)
(9.32282 0.0622855 0)
(9.22537 0.0424499 0)
(9.133 0.0278134 0)
(9.04572 0.0169317 0)
(8.96342 0.00879856 0)
(8.88595 0.00270022 0)
(8.81313 -0.0018761 0)
(8.74474 -0.00530072 0)
(8.6806 -0.00783419 0)
(8.62074 -0.0096224 0)
(8.56336 -0.0105 0)
(0.0232545 -0.0973251 0)
(0.0559485 -0.0540952 0)
(0.0437689 0.0142242 0)
(-0.0124474 0.0817846 0)
(-0.0916397 0.112539 0)
(-0.181043 0.123886 0)
(-0.277437 0.128388 -8.65966e-20)
(-0.3785 0.130229 7.25262e-20)
(-0.482936 0.130839 0)
(-0.589819 0.130675 5.50512e-20)
(-0.698392 0.129904 0)
(-0.808025 0.128637 0)
(-0.918184 0.126961 0)
(-1.02841 0.124954 -3.85824e-20)
(-1.13833 0.122681 0)
(-1.24761 0.120203 0)
(-1.35598 0.117568 3.27464e-20)
(-1.46321 0.114822 0)
(-1.56914 0.112001 0)
(-1.6736 0.109139 0)
(-1.7765 0.106264 -2.85105e-20)
(-1.87774 0.103398 0)
(-1.97727 0.10056 -2.72167e-20)
(-2.07505 0.0977672 0)
(-2.17106 0.095031 0)
(-2.2653 0.0923612 -2.58743e-20)
(-2.35777 0.089765 0)
(-2.44851 0.0872473 2.52513e-20)
(-2.53752 0.0848115 0)
(-2.62485 0.082459 -2.47784e-20)
(-2.71052 0.0801898 0)
(-2.79459 0.0780029 0)
(-2.87708 0.0758963 0)
(-2.95805 0.0738671 0)
(-3.03752 0.0719119 0)
(-3.11555 0.0700268 2.39144e-20)
(-3.19217 0.0682073 0)
(-3.26741 0.0664487 -4.74738e-20)
(-3.34131 0.0647458 0)
(-3.41388 0.0630931 4.71797e-20)
(-3.48516 0.0614849 0)
(-3.55516 0.0599154 0)
(-3.62388 0.0583787 -4.68073e-20)
(-3.69134 0.0568683 0)
(-3.75753 0.0553776 -4.65799e-20)
(-3.82244 0.0538998 4.64667e-20)
(-3.88606 0.0524279 0)
(-3.94835 0.0509549 4.62327e-20)
(-4.00929 0.0494738 4.61084e-20)
(-4.06883 0.0479771 0)
(-4.12693 0.0464574 0)
(-4.18351 0.0449066 0)
(-4.2385 0.0433164 0)
(-4.29182 0.0416782 0)
(-4.34338 0.039983 -4.51493e-20)
(-4.39306 0.0382209 0)
(-4.44073 0.0363817 4.47018e-20)
(-4.48626 0.034454 0)
(-4.52949 0.0324257 0)
(-4.57024 0.0302842 -4.3848e-20)
(-4.60832 0.0280165 0)
(-4.64352 0.0256091 4.3125e-20)
(-4.67559 0.0230477 0)
(-4.70427 0.0203161 0)
(-4.72926 0.0173942 0)
(-4.75028 0.0142547 -4.11853e-20)
(-4.76701 0.0108654 0)
(-4.77905 0.0072045 0)
(-4.78589 0.00327471 -3.91576e-20)
(-4.78708 -0.000895767 0)
(-4.78226 -0.00531579 -3.73687e-20)
(-4.77098 -0.0100212 0)
(-4.75275 -0.0150204 0)
(-4.7271 -0.0203147 0)
(-4.69355 -0.0258988 3.26363e-20)
(-4.65162 -0.0317589 0)
(-4.60087 -0.0378714 0)
(-4.54089 -0.0442015 2.78245e-20)
(-4.47136 -0.0507017 2.59349e-20)
(-4.39201 -0.0573109 0)
(-4.30269 -0.0639549 2.16775e-20)
(-4.2034 -0.0705463 0)
(-4.09426 -0.0769877 3.34629e-20)
(-3.97557 -0.0831743 0)
(-3.8478 -0.0889986 2.20863e-20)
(-3.71159 -0.094356 0)
(-3.56775 -0.0991509 -9.13104e-21)
(-3.41722 -0.103302 0)
(-3.26107 -0.106748 0)
(-3.10044 -0.10945 0)
(-2.93652 -0.111394 -2.19167e-20)
(-2.77048 -0.112588 0)
(-2.60349 -0.113066 4.03067e-20)
(-2.43663 -0.112877 0)
(-2.27092 -0.112086 -6.09418e-20)
(-2.10723 -0.110768 -7.22232e-20)
(-1.94635 -0.109004 -8.42336e-20)
(-1.78893 -0.106876 0)
(-1.63549 -0.104467 0)
(-1.48645 -0.101852 0)
(-1.34211 -0.0991014 0)
(-1.20266 -0.0962771 0)
(-1.06822 -0.0934319 0)
(-0.938819 -0.0906262 0)
(-0.81443 -0.0879002 0)
(-0.694949 -0.0853074 2.45379e-19)
(-0.580253 -0.082893 2.73163e-19)
(-0.470119 -0.0807188 0)
(-0.364441 -0.078822 0)
(-0.262591 -0.0772692 0)
(-0.164639 -0.0761675 4.26911e-19)
(-0.0719559 -0.0749998 0)
(0.0212281 -0.0715205 0)
(0.106967 -0.0660578 0)
(0.18886 -0.0608365 0)
(0.266957 -0.0561876 -4.38084e-19)
(0.341374 -0.0520641 0)
(0.412389 -0.0483917 0)
(0.480258 -0.0451029 3.88353e-19)
(0.545203 -0.0421411 -3.75738e-19)
(0.607417 -0.0394614 0)
(0.667071 -0.0370265 -3.54502e-19)
(0.724321 -0.0348045 0)
(0.779312 -0.0327682 3.37297e-19)
(0.832176 -0.0308951 0)
(0.883032 -0.0291671 0)
(0.931988 -0.0275694 0)
(0.979146 -0.0260894 0)
(1.0246 -0.024716 0)
(1.06843 -0.0234395 -6.01831e-19)
(1.11073 -0.0222512 -5.92739e-19)
(1.15156 -0.0211427 0)
(1.191 -0.020106 0)
(1.22913 -0.0191352 0)
(1.26599 -0.0182258 5.62136e-19)
(1.30167 -0.0173735 0)
(1.3362 -0.0165736 0)
(1.36965 -0.015822 0)
(1.40208 -0.0151155 5.38517e-19)
(1.43352 -0.0144513 -5.33445e-19)
(1.46402 -0.0138268 0)
(1.49363 -0.013239 0)
(1.5224 -0.0126854 -5.19831e-19)
(1.55036 -0.0121635 -5.15762e-19)
(1.57756 -0.0116717 0)
(1.60403 -0.0112082 0)
(1.62981 -0.0107713 5.04733e-19)
(1.65493 -0.0103588 -5.01403e-19)
(1.67943 -0.00996923 0)
(1.70334 -0.00960192 0)
(1.72668 -0.00925629 -4.92292e-19)
(1.7495 -0.00893044 0)
(1.77181 -0.00862213 0)
(1.79365 -0.00833085 -4.8429e-19)
(1.81504 -0.00805636 0)
(1.83601 -0.00779713 -4.7946e-19)
(1.85658 -0.00755208 0)
(1.87678 -0.00732055 0)
(1.89662 -0.00710201 0)
(1.91614 -0.00689634 4.70772e-19)
(1.93534 -0.00670149 0)
(1.95425 -0.00651495 0)
(1.97288 -0.00633687 0)
(1.99124 -0.00616668 0)
(2.00934 -0.00600238 0)
(2.02718 -0.00584106 0)
(2.04476 -0.00567798 4.57874e-19)
(2.06206 -0.00551015 4.5624e-19)
(2.07905 -0.00533427 0)
(2.09568 -0.00514183 0)
(2.11185 -0.00491842 0)
(2.12743 -0.00464923 -4.50556e-19)
(2.14221 -0.00430828 0)
(2.15586 -0.00385365 8.97441e-19)
(2.16786 -0.00321433 -8.96707e-19)
(2.17733 -0.00227379 -8.97264e-19)
(2.18285 -0.00078526 8.99363e-19)
(2.18116 0.00204136 -9.03104e-19)
(2.16833 0.00817242 9.12356e-19)
(2.08977 0.0293823 0)
(-0.0308134 -0.0786411 0)
(-0.073315 0.0534139 0)
(-0.131659 0.145945 1.33051e-19)
(-0.200469 0.210117 0)
(-0.275004 0.250796 -9.24507e-20)
(-0.35597 0.276114 -8.16385e-20)
(-0.443349 0.292504 -3.64023e-20)
(-0.535904 0.3034 -3.31175e-20)
(-0.632327 0.310529 0)
(-0.731536 0.314812 -2.79495e-20)
(-0.832659 0.316823 0)
(-0.934991 0.316976 0)
(-1.03795 0.315599 4.60319e-20)
(-1.14106 0.312963 2.19809e-20)
(-1.24391 0.309296 -4.18914e-20)
(-1.34617 0.304794 -4.02811e-20)
(-1.44759 0.299627 -1.95455e-20)
(-1.54792 0.29394 0)
(-1.64701 0.287861 0)
(-1.7447 0.281497 0)
(-1.84089 0.274942 -1.74655e-20)
(-1.93551 0.268272 0)
(-2.02849 0.261556 5.10057e-20)
(-2.11981 0.254846 0)
(-2.20945 0.248188 0)
(-2.29739 0.241619 1.64526e-20)
(-2.38366 0.235165 0)
(-2.46825 0.22885 -1.61695e-20)
(-2.55121 0.222689 -3.18991e-20)
(-2.63254 0.216692 1.59591e-20)
(-2.71229 0.210867 0)
(-2.79049 0.205215 0)
(-2.86716 0.199736 0)
(-2.94236 0.194428 -3.11636e-20)
(-3.0161 0.189283 -3.10736e-20)
(-3.08842 0.184295 -1.56039e-20)
(-3.15936 0.179455 0)
(-3.22894 0.174752 3.10814e-20)
(-3.29717 0.170175 0)
(-3.36408 0.165711 -3.09837e-20)
(-3.42969 0.161347 0)
(-3.49399 0.157068 0)
(-3.55699 0.152861 3.08642e-20)
(-3.6187 0.14871 0)
(-3.67909 0.144599 9.19946e-20)
(-3.73815 0.140512 -3.07442e-20)
(-3.79585 0.136431 0)
(-3.85218 0.13234 -3.06462e-20)
(-3.90707 0.12822 -3.05879e-20)
(-3.96048 0.124053 0)
(-4.01236 0.11982 0)
(-4.06263 0.115503 0)
(-4.11122 0.111079 0)
(-4.15802 0.106529 0)
(-4.20295 0.10183 3.00165e-20)
(-4.24588 0.0969604 5.95432e-20)
(-4.28669 0.0918957 -2.97034e-20)
(-4.32524 0.0866105 0)
(-4.36136 0.0810781 5.84893e-20)
(-4.39489 0.07527 -2.89773e-20)
(-4.42564 0.0691566 0)
(-4.4534 0.0627076 -2.85123e-20)
(-4.47794 0.0558914 0)
(-4.499 0.0486742 0)
(-4.51633 0.0410163 -5.4954e-20)
(-4.52967 0.0328659 2.69957e-20)
(-4.53872 0.0241609 -5.32297e-20)
(-4.54309 0.0148472 5.22426e-20)
(-4.54228 0.00492094 2.53985e-20)
(-4.53613 -0.00558278 0)
(-4.52419 -0.0166734 2.40069e-20)
(-4.50605 -0.028382 0)
(-4.48129 -0.0407167 0)
(-4.44947 -0.0536683 0)
(-4.41016 -0.0672106 2.1154e-20)
(-4.36296 -0.0812964 0)
(-4.30746 -0.095855 3.72979e-20)
(-4.24331 -0.110789 -5.18954e-20)
(-4.17022 -0.12597 -1.56615e-20)
(-4.08796 -0.141239 0)
(-3.99642 -0.156409 -1.28055e-20)
(-3.89558 -0.171263 0)
(-3.78557 -0.185564 -1.92873e-20)
(-3.66668 -0.199064 0)
(-3.53934 -0.211512 -1.23908e-20)
(-3.40415 -0.222672 2.07397e-20)
(-3.26186 -0.232335 4.97483e-21)
(-3.11336 -0.240331 0)
(-2.95964 -0.24654 0)
(-2.80177 -0.250899 0)
(-2.64087 -0.253405 1.11875e-20)
(-2.47804 -0.254109 0)
(-2.31438 -0.253115 -1.98444e-20)
(-2.15091 -0.250563 0)
(-1.98858 -0.246627 8.29832e-20)
(-1.82822 -0.2415 3.34938e-20)
(-1.67058 -0.235381 3.82238e-20)
(-1.51626 -0.22847 0)
(-1.36577 -0.220963 0)
(-1.2195 -0.213036 0)
(-1.07772 -0.20485 0)
(-0.940621 -0.196549 0)
(-0.808315 -0.188241 1.34491e-19)
(-0.680821 -0.180054 1.4561e-19)
(-0.558125 -0.172074 0)
(-0.440096 -0.164392 -8.57997e-20)
(-0.326675 -0.157081 -9.17911e-20)
(-0.217516 -0.150211 0)
(-0.112785 -0.143848 -2.06019e-19)
(-0.0114461 -0.137696 0)
(0.0857725 -0.131756 1.09944e-19)
(0.177865 -0.126235 0)
(0.266267 -0.119922 0)
(0.350446 -0.112755 -2.29694e-19)
(0.431032 -0.105992 0)
(0.508156 -0.0997368 1.18053e-19)
(0.581992 -0.0940001 0)
(0.652723 -0.0887408 0)
(0.720532 -0.0839055 1.19535e-19)
(0.785591 -0.079445 1.21727e-19)
(0.848061 -0.075317 0)
(0.90809 -0.0714852 -1.22072e-19)
(0.965815 -0.0679183 0)
(1.02136 -0.0645904 1.23494e-19)
(1.07486 -0.0614793 2.49216e-19)
(1.1264 -0.0585659 0)
(1.17611 -0.0558334 0)
(1.22407 -0.0532676 0)
(1.27037 -0.0508558 0)
(1.3151 -0.048587 2.55061e-19)
(1.35834 -0.0464502 7.66342e-19)
(1.40015 -0.0444351 0)
(1.44061 -0.0425329 0)
(1.47979 -0.0407367 0)
(1.51775 -0.0390399 -2.58848e-19)
(1.55454 -0.0374359 0)
(1.59022 -0.0359186 0)
(1.62485 -0.034483 5.20613e-19)
(1.65848 -0.0331246 2.60485e-19)
(1.69115 -0.0318391 2.61935e-19)
(1.72292 -0.0306227 0)
(1.75382 -0.0294714 0)
(1.7839 -0.0283813 2.63557e-19)
(1.81319 -0.0273491 -2.63378e-19)
(1.84175 -0.0263718 0)
(1.8696 -0.0254464 0)
(1.89678 -0.02457 -2.6552e-19)
(1.92333 -0.0237399 7.97364e-19)
(1.94927 -0.0229539 0)
(1.97464 -0.0222105 0)
(1.99948 -0.0215076 2.67296e-19)
(2.0238 -0.0208425 0)
(2.04763 -0.0202124 5.35774e-19)
(2.07101 -0.0196163 -2.68067e-19)
(2.09397 -0.0190533 0)
(2.11652 -0.0185212 2.69283e-19)
(2.1387 -0.0180184 5.38894e-19)
(2.16051 -0.0175435 0)
(2.182 -0.0170945 0)
(2.20317 -0.0166703 -2.70681e-19)
(2.22406 -0.016268 0)
(2.24467 -0.0158843 5.42291e-19)
(2.26503 -0.0155183 0)
(2.28514 -0.0151678 0)
(2.30501 -0.0148277 0)
(2.32466 -0.0144914 0)
(2.34408 -0.0141506 -2.72727e-19)
(2.36324 -0.0137967 -2.72994e-19)
(2.38214 -0.0134179 0)
(2.40069 -0.0129939 0)
(2.41885 -0.0124943 0)
(2.43648 -0.0118808 2.74236e-19)
(2.45341 -0.0110908 0)
(2.46932 -0.010021 -5.50506e-19)
(2.48377 -0.00849676 5.52064e-19)
(2.49598 -0.00621612 5.54317e-19)
(2.50463 -0.00258186 5.56974e-19)
(2.50697 0.00404214 5.60141e-19)
(2.50177 0.0179507 5.63646e-19)
(2.46157 0.0528822 0)
(-0.0697396 0.0839889 0)
(-0.127254 0.208217 0)
(-0.198433 0.297787 -8.39253e-20)
(-0.275915 0.365934 -6.76558e-20)
(-0.354826 0.415663 5.90841e-20)
(-0.436048 0.450852 5.29852e-20)
(-0.520351 0.475438 -1.26954e-22)
(-0.607487 0.492312 0)
(-0.696876 0.503376 0)
(-0.787927 0.509884 0)
(-0.880114 0.512716 0)
(-0.972975 0.512542 0)
(-1.06611 0.509899 -9.73147e-20)
(-1.15918 0.505234 0)
(-1.2519 0.498924 2.97395e-20)
(-1.34401 0.491293 2.87112e-20)
(-1.43533 0.482619 0)
(-1.52567 0.473139 0)
(-1.61491 0.463057 0)
(-1.70295 0.452548 0)
(-1.78969 0.441758 2.53472e-20)
(-1.87508 0.430811 0)
(-1.95908 0.419811 -2.45498e-20)
(-2.04164 0.408841 0)
(-2.12277 0.397972 0)
(-2.20245 0.387257 0)
(-2.28069 0.37674 -4.69078e-20)
(-2.3575 0.366452 0)
(-2.43288 0.356418 2.31545e-20)
(-2.50686 0.346651 -4.59056e-20)
(-2.57947 0.33716 0)
(-2.65072 0.327949 0)
(-2.72064 0.319014 0)
(-2.78925 0.31035 2.26307e-20)
(-2.85659 0.301947 2.25648e-20)
(-2.92266 0.293791 0)
(-2.98749 0.285867 0)
(-3.05109 0.278157 -4.46447e-20)
(-3.11349 0.270642 -4.45678e-20)
(-3.17469 0.263302 4.45002e-20)
(-3.2347 0.256115 0)
(-3.29351 0.249056 0)
(-3.35113 0.242103 0)
(-3.40754 0.235229 0)
(-3.46273 0.228409 -4.44105e-20)
(-3.51668 0.221615 -4.41787e-20)
(-3.56936 0.214821 4.4121e-20)
(-3.62072 0.207999 0)
(-3.67074 0.201118 0)
(-3.71935 0.194149 0)
(-3.7665 0.187061 0)
(-3.81211 0.179823 -4.36966e-20)
(-3.8561 0.172402 0)
(-3.89838 0.164764 0)
(-3.93885 0.156873 -4.32543e-20)
(-3.97739 0.148693 -4.31228e-20)
(-4.01388 0.140186 0)
(-4.04818 0.131313 8.51802e-20)
(-4.08012 0.122032 -4.23096e-20)
(-4.10955 0.112299 4.19673e-20)
(-4.13628 0.10207 0)
(-4.16011 0.091298 0)
(-4.18081 0.0799331 0)
(-4.19814 0.0679241 0)
(-4.21186 0.0552138 3.95753e-20)
(-4.22172 0.0417369 7.82739e-20)
(-4.22746 0.0274237 3.82401e-20)
(-4.22866 0.0122185 -3.74616e-20)
(-4.22506 -0.00388065 0)
(-4.21632 -0.0208741 7.18381e-20)
(-4.20207 -0.0388015 6.97735e-20)
(-4.18191 -0.0576869 6.75322e-20)
(-4.15545 -0.0775334 -6.51075e-20)
(-4.12228 -0.09832 0)
(-4.08201 -0.119999 -8.89182e-20)
(-4.03424 -0.142491 0)
(-3.9786 -0.165677 2.74572e-20)
(-3.91474 -0.189397 2.42635e-20)
(-3.84238 -0.213444 0)
(-3.7613 -0.237561 0)
(-3.67137 -0.261443 3.86684e-20)
(-3.57258 -0.284743 0)
(-3.46503 -0.307082 3.01199e-20)
(-3.34898 -0.328063 0)
(-3.22486 -0.347291 -2.08876e-20)
(-3.09322 -0.364392 -2.99085e-20)
(-2.95479 -0.379039 0)
(-2.81042 -0.390972 0)
(-2.66108 -0.400012 0)
(-2.50781 -0.406075 4.5832e-21)
(-2.35167 -0.409168 0)
(-2.19375 -0.409389 1.54712e-20)
(-2.0351 -0.406917 0)
(-1.8767 -0.401988 0)
(-1.71947 -0.394886 -6.67211e-20)
(-1.5642 -0.385928 0)
(-1.41159 -0.375435 -4.37805e-20)
(-1.26222 -0.363722 0)
(-1.11657 -0.351105 -5.54359e-20)
(-0.974985 -0.337861 0)
(-0.837736 -0.324243 0)
(-0.704983 -0.31048 0)
(-0.576832 -0.296743 -2.39563e-19)
(-0.453272 -0.28323 -8.70665e-20)
(-0.334338 -0.270081 0)
(-0.219786 -0.257417 0)
(-0.109783 -0.245356 0)
(-0.00355768 -0.233709 0)
(0.0980494 -0.222598 1.14725e-19)
(0.19506 -0.21187 -2.32696e-19)
(0.287868 -0.201406 -1.20562e-19)
(0.376438 -0.191417 2.441e-19)
(0.461164 -0.181575 2.49489e-19)
(0.542372 -0.17184 1.28467e-19)
(0.620372 -0.162608 0)
(0.695232 -0.153961 2.64694e-19)
(0.767066 -0.145904 0)
(0.836005 -0.138406 -2.7379e-19)
(0.90219 -0.131422 -1.39816e-19)
(0.965763 -0.12491 0)
(1.02686 -0.118828 2.85951e-19)
(1.08562 -0.113136 1.45497e-19)
(1.14217 -0.107803 0)
(1.19662 -0.102798 1.477e-19)
(1.24909 -0.0980965 -4.50348e-19)
(1.29968 -0.0936733 0)
(1.3485 -0.0895075 0)
(1.39562 -0.0855807 0)
(1.44115 -0.0818769 0)
(1.48515 -0.0783806 -3.1437e-19)
(1.52772 -0.0750776 -3.1779e-19)
(1.5689 -0.0719548 0)
(1.60878 -0.069001 0)
(1.64742 -0.0662061 0)
(1.68488 -0.0635603 0)
(1.72121 -0.0610543 0)
(1.75648 -0.0586798 0)
(1.79073 -0.0564295 -3.33575e-19)
(1.82401 -0.054297 -5.62714e-22)
(1.85637 -0.0522761 0)
(1.88785 -0.0503606 0)
(1.9185 -0.0485447 -3.40802e-19)
(1.94835 -0.046823 0)
(1.97746 -0.0451909 3.44881e-19)
(2.00585 -0.0436437 3.46177e-19)
(2.03356 -0.0421768 0)
(2.06062 -0.0407862 0)
(2.08708 -0.0394682 -3.51584e-19)
(2.11295 -0.0382196 -7.05601e-19)
(2.13828 -0.0370371 0)
(2.16309 -0.0359173 0)
(2.18741 -0.0348569 0)
(2.21126 -0.0338526 -3.59211e-19)
(2.23468 -0.0329018 3.60646e-19)
(2.25769 -0.0320026 0)
(2.28032 -0.0311526 7.26285e-19)
(2.30258 -0.0303496 3.64224e-19)
(2.32451 -0.029591 -7.31673e-19)
(2.34612 -0.0288733 0)
(2.36744 -0.0281942 0)
(2.38849 -0.0275511 -7.39342e-19)
(2.40928 -0.0269397 -3.71136e-19)
(2.42983 -0.0263562 0)
(2.45015 -0.0257961 0)
(2.47026 -0.0252514 0)
(2.49015 -0.0247132 0)
(2.50983 -0.0241705 -7.53348e-19)
(2.52929 -0.0236077 0)
(2.54849 -0.0230039 0)
(2.5674 -0.0223293 0)
(2.58595 -0.0215396 0)
(2.60402 -0.0205717 0)
(2.62145 -0.0193288 0)
(2.63799 -0.0176537 -7.70113e-19)
(2.65324 -0.0152838 0)
(2.6666 -0.0117513 0)
(2.67715 -0.00619874 -1.56699e-18)
(2.68302 0.00338744 7.87004e-19)
(2.68532 0.0214477 -7.92774e-19)
(2.66939 0.0583758 7.93001e-19)
(-0.0718631 0.26161 0)
(-0.138871 0.387019 1.9943e-19)
(-0.216874 0.46998 0)
(-0.298905 0.534036 5.20105e-20)
(-0.380113 0.583328 0)
(-0.46081 0.620117 0)
(-0.542007 0.646731 -3.79461e-20)
(-0.623992 0.665227 0)
(-0.706682 0.677215 0)
(-0.789881 0.683909 0)
(-0.873368 0.686245 0)
(-0.956928 0.684971 0)
(-1.04036 0.680705 1.0427e-19)
(-1.12347 0.673975 5.02355e-20)
(-1.20611 0.665234 -4.83848e-20)
(-1.28812 0.654872 0)
(-1.36938 0.643227 0)
(-1.44979 0.630592 0)
(-1.52925 0.617218 0)
(-1.60771 0.603318 0)
(-1.68509 0.589075 4.13916e-20)
(-1.76135 0.574642 4.06863e-20)
(-1.83647 0.560147 -4.00687e-20)
(-1.91042 0.545696 3.95277e-20)
(-1.98318 0.531374 0)
(-2.05475 0.517249 0)
(-2.12513 0.503375 3.8186e-20)
(-2.19432 0.489792 0)
(-2.26233 0.47653 0)
(-2.32916 0.463606 3.73982e-20)
(-2.39484 0.451032 3.72203e-20)
(-2.45938 0.438811 3.7035e-20)
(-2.52279 0.426941 0)
(-2.58509 0.415412 0)
(-2.6463 0.404212 -3.66122e-20)
(-2.70642 0.393325 0)
(-2.76547 0.38273 0)
(-2.82346 0.372405 3.63814e-20)
(-2.8804 0.362324 -3.62201e-20)
(-2.93629 0.352461 3.61571e-20)
(-2.99112 0.342787 0)
(-3.04491 0.33327 0)
(-3.09763 0.32388 7.21303e-20)
(-3.14927 0.314581 0)
(-3.19982 0.30534 7.19683e-20)
(-3.24926 0.296121 1.07879e-19)
(-3.29754 0.286887 -1.07747e-19)
(-3.34463 0.277599 7.17098e-20)
(-3.39049 0.268219 0)
(-3.43506 0.258706 0)
(-3.47828 0.249018 7.13583e-20)
(-3.52009 0.239113 3.56109e-20)
(-3.56039 0.228945 0)
(-3.59911 0.218469 0)
(-3.63613 0.207636 3.52659e-20)
(-3.67136 0.196397 7.03092e-20)
(-3.70465 0.184702 0)
(-3.73588 0.172496 -6.9491e-20)
(-3.76489 0.159724 6.92216e-20)
(-3.79153 0.146328 -6.87545e-20)
(-3.8156 0.132248 0)
(-3.83693 0.117422 0)
(-3.85528 0.101785 0)
(-3.87043 0.0852707 0)
(-3.88214 0.0678048 0)
(-3.89018 0.04931 -6.3965e-20)
(-3.8943 0.0297081 0)
(-3.89407 0.00894036 0)
(-3.88933 -0.0130224 0)
(-3.87968 -0.0362127 -1.17985e-19)
(-3.86479 -0.0606722 -5.68894e-20)
(-3.84428 -0.086428 -5.50215e-20)
(-3.81776 -0.113483 1.06981e-19)
(-3.78487 -0.14181 -5.18775e-20)
(-3.74518 -0.171349 4.84952e-20)
(-3.69833 -0.201993 0)
(-3.64394 -0.233588 -4.33499e-20)
(-3.58165 -0.265919 0)
(-3.51118 -0.298707 0)
(-3.43228 -0.331603 0)
(-3.3448 -0.364194 -6.3822e-20)
(-3.2487 -0.396002 2.92721e-20)